ID,Name,InChI,InChIKey,SMILES,Solubility,SD,Ocurrences,Group,MolWt,MolLogP,MolMR,HeavyAtomCount,NumHAcceptors,NumHDonors,NumHeteroatoms,NumRotatableBonds,NumValenceElectrons,NumAromaticRings,NumSaturatedRings,NumAliphaticRings,RingCount,TPSA,LabuteASA,BalabanJ,BertzCT
A-1112,"1,5-dimethyl-1-vinylhex-4-en-1-yl 2-methylpropanoate","InChI=1S/C14H24O2/c1-7-14(6,10-8-9-11(2)3)16-13(15)12(4)5/h7,9,12H,1,8,10H2,2-6H3",JZIARAQCPRDGAC-UHFFFAOYSA-N,CC(C)C(=O)OC(C)(CCC=C(C)C)C=C,-4.81058498420,0.00000000000,1,G1,224.34400,3.87670,68.19700,16,2,0,2,6,92,0,0,0,0,26.30,99.37935978017,4.36726566869,272.45992880859
A-1113,"(diphenylphosphoroso)(2,4,6-trimethylphenyl)methanone","InChI=1S/C22H21O2P/c1-16-14-17(2)21(18(3)15-16)22(23)25(24,19-10-6-4-7-11-19)20-12-8-5-9-13-20/h4-15H,1-3H3",VFHVQBAGLAREND-UHFFFAOYSA-N,Cc1cc(C)c(c(C)c1)C(=O)[P](=O)(c2ccccc2)c3ccccc3,-5.01057679100,0.25495688405,2,G3,348.38200,4.76616,104.74200,25,2,0,3,4,126,3,0,0,3,34.14,148.45648198935,2.27416213334,893.32720971941
A-1114,"3-[(2-ethylhexanoyl)oxy]-2,2-dimethylpropyl 2-ethylhexanoate","InChI=1S/C21H40O4/c1-7-11-13-17(9-3)19(22)24-15-21(5,6)16-25-20(23)18(10-4)14-12-8-2/h17-18H,7-16H2,1-6H3",GORMSINSWZJIKL-UHFFFAOYSA-N,CCCCC(CC)C(=O)OCC(C)(C)COC(=O)C(CC)CCCC,-5.02063786960,1.26573945850,2,G2,356.54700,5.53180,102.31100,25,4,0,4,14,148,0,0,0,0,52.60,154.58822797486,4.33949410798,342.09233896986
A-1115,titanium(4+) ion zirconium(4+) ion lead(2+) ion pentaoxidandiide,InChI=1S/5O.Pb.Ti.Zr/q5*-2;+2;2*+4,HFGPZNIAWCZYJU-UHFFFAOYSA-N,[O--].[O--].[O--].[O--].[O--].[Ti+4].[Zr+4].[Pb++],-5.09822215280,0.00000000000,1,G1,426.28600,-0.97980,9.18650,8,0,0,8,0,42,0,0,0,0,142.50,101.30918768065,0.00000000000,12.39035952556
A-1116,"ethyl 2,2-dimethyl-3-(2-methylprop-1-en-1-yl)cyclopropane-1-carboxylate","InChI=1S/C12H20O2/c1-6-14-11(13)10-9(7-8(2)3)12(10,4)5/h7,9-10H,6H2,1-5H3",VIMXTGUGWLAOFZ-UHFFFAOYSA-N,CCOC(=O)C1C(C=C(C)C)C1(C)C,-4.76526827410,0.00000000000,1,G1,196.29000,2.78790,56.82500,14,2,0,2,3,80,0,1,1,1,26.30,86.33324743003,2.65885302458,259.49529453538
A-1119,N-(4-carbamoylphenyl)-4-nitrobenzamide,"InChI=1S/C14H11N3O4/c15-13(18)9-1-5-11(6-2-9)16-14(19)10-3-7-12(8-4-10)17(20)21/h1-8H,(H2,15,18)(H,16,19)",FANLHXKNWWSLIG-UHFFFAOYSA-N,NC(=O)c1ccc(NC(=O)c2ccc(cc2)[N+]([O-])=O)cc1,-4.93672541550,0.00000000000,1,G1,285.25900,1.94600,76.00950,21,4,2,7,4,106,2,0,0,2,115.33,119.08415435756,2.09830463087,693.16398874930
A-1120,"1-(6-tert-butyl-1,1-dimethyl-2,3-dihydro-1H-inden-4-yl)ethan-1-one","InChI=1S/C17H24O/c1-11(18)14-9-12(16(2,3)4)10-15-13(14)7-8-17(15,5)6/h9-10H,7-8H2,1-6H3",IKTHMQYJOWTSJO-UHFFFAOYSA-N,CC(=O)c1cc(cc2c1CCC2(C)C)C(C)(C)C,-4.87086620820,0.00000000000,1,G1,244.37800,4.41050,76.49350,18,1,0,1,1,98,1,0,1,2,17.07,110.60145732437,2.71074522944,501.07675664305
A-1121,"N-(4-amino-3-methoxy-9,10-dioxo-9,10-dihydroanthracen-1-yl)-4-methylbenzene-1-sulfonamide","InChI=1S/C22H18N2O5S/c1-12-7-9-13(10-8-12)30(27,28)24-16-11-17(29-2)20(23)19-18(16)21(25)14-5-3-4-6-15(14)22(19)26/h3-11,24H,23H2,1-2H3",BXIGAWRFDMDLTL-UHFFFAOYSA-N,COc1cc(N[S](=O)(=O)c2ccc(C)cc2)c3C(=O)c4ccccc4C(=O)c3c1N,-5.11257005070,2.05419194170,2,G2,422.46200,3.16202,112.70090,30,6,2,8,4,152,3,0,1,4,115.56,173.08664703831,1.92708996940,1312.09971592416
A-1122,2-[(3-carboxy-2-oxidonaphthalen-1-yl)diazenyl]-4-chloro-5-methylbenzenesulfonate;manganese(2+),"InChI=1S/C18H13ClN2O6S.Mn/c1-9-6-15(28(25,26)27)14(8-13(9)19)20-21-16-11-5-3-2-4-10(11)7-12(17(16)22)18(23)24;/h2-8,22H,1H3,(H,23,24)(H,25,26,27);/q;+2/p-2",FXKOYCHIRMCIOR-UHFFFAOYSA-L,[H+].[Mn++].Cc1cc(c(cc1Cl)N=Nc2c([O-])c(cc3ccccc23)C([O-])=O)[S]([O-])(=O)=O,-5.17040107810,0.55381693920,2,G2,473.75200,2.66822,97.16470,29,8,0,11,4,149,3,0,0,3,145.11,182.10913441365,0.00000225000,1267.25656998441
A-1123,"2,5-bis[(4-methylphenyl)amino]terephthalic acid","InChI=1S/C22H20N2O4/c1-13-3-7-15(8-4-13)23-19-11-18(22(27)28)20(12-17(19)21(25)26)24-16-9-5-14(2)6-10-16/h3-12,23-24H,1-2H3,(H,25,26)(H,27,28)",FVLUGNOOEZYDNV-UHFFFAOYSA-N,Cc1ccc(Nc2cc(C(O)=O)c(Nc3ccc(C)cc3)cc2C(O)=O)cc1,-5.07051348190,0.00000000000,1,G1,376.41200,5.18704,109.28400,28,4,4,6,6,142,3,0,0,3,98.66,162.01659606091,2.03906566677,940.40244465062
A-1125,"(Z)-N-(4-chloro-2,5-dimethoxyphenyl)-3-hydroxynaphthalene-2-carboximidic acid","InChI=1S/C19H16ClNO4/c1-24-17-10-15(18(25-2)9-14(17)20)21-19(23)13-7-11-5-3-4-6-12(11)8-16(13)22/h3-10,22H,1-2H3,(H,21,23)",QIHKTBRNOLQDGQ-UHFFFAOYSA-N,COc1cc(NC(=O)c2cc3ccccc3cc2O)c(OC)cc1Cl,-5.06227014580,0.00000000000,1,G1,357.79300,4.46830,98.12200,25,4,2,6,4,128,3,0,0,3,67.79,149.30096292223,1.98633038055,955.55211191068
A-1126,2-ethylhexyl 2-methylprop-2-enoate,"InChI=1S/C12H22O2/c1-5-7-8-11(6-2)9-14-12(13)10(3)4/h11H,3,5-9H2,1-2,4H3",WDQMWEYDKDCEHT-UHFFFAOYSA-N,CCCCC(CC)COC(=O)C(C)=C,-4.80597416070,0.28213545660,3,G5,198.30600,3.32210,59.07900,14,2,0,2,7,82,0,0,0,0,26.30,87.33907858356,3.71465884159,184.76075065686
A-1127,3-(chloromethyl)heptane,"InChI=1S/C8H17Cl/c1-3-5-6-8(4-2)7-9/h8H,3-7H2,1-2H3",WLVCBAMXYMWGLJ-UHFFFAOYSA-N,CCCCC(CC)CCl,-4.68088209550,0.75429104775,2,G2,148.67700,3.44160,44.02600,9,0,0,1,5,56,0,0,0,0,0.00,63.59711205549,3.09224619460,48.52932501298
A-1128,4-amino-N-(4-carbamoylphenyl)benzamide,"InChI=1S/C14H13N3O2/c15-11-5-1-10(2-6-11)14(19)17-12-7-3-9(4-8-12)13(16)18/h1-8H,15H2,(H2,16,18)(H,17,19)",FSPYMSUDIVFOHY-UHFFFAOYSA-N,NC(=O)c1ccc(NC(=O)c2ccc(N)cc2)cc1,-4.91564999360,0.00000000000,1,G1,255.27700,1.62000,73.76750,19,3,3,5,3,96,2,0,0,2,98.21,109.77106933208,2.10094264836,603.59313279653
A-1129,"Alcohols, C12-13","InChI=1S/C12H26O.CH4/c1-2-3-4-5-6-7-8-9-10-11-12-13;/h13H,2-12H2,1H3;1H4",WWYHAQDAMPXWSI-UHFFFAOYSA-N,C.CCCCCCCCCCCCO,-4.81481018960,0.05557522605,2,G3,202.38200,4.53570,65.66080,14,1,1,1,10,88,0,0,0,0,20.23,90.91862130631,0.00000000000,71.30474818299
A-1132,10-(prop-2-enoyloxy)decyl prop-2-enoate,"InChI=1S/C16H26O4/c1-3-15(17)19-13-11-9-7-5-6-8-10-12-14-20-16(18)4-2/h3-4H,1-2,5-14H2",RHNJVKIVSXGYBD-UHFFFAOYSA-N,C=CC(=O)OCCCCCCCCCCOC(=O)C=C,-4.96087545450,0.00000000000,1,G1,282.38000,3.56560,79.24800,20,4,0,4,13,114,0,0,0,0,52.60,121.38431133851,3.09479747402,266.85199763426
A-1133,17-hydroxy-1-methylandrostan-3-one,"InChI=1S/C20H32O2/c1-12-10-14(21)11-13-4-5-15-16-6-7-18(22)19(16,2)9-8-17(15)20(12,13)3/h12-13,15-18,22H,4-11H2,1-3H3/t12-,13-,15-,16-,17-,18-,19-,20-/m0/s1",UXYRZJKIQKRJCF-TZPFWLJSSA-N,C[C@H]1CC(=O)C[C@@H]2CC[C@H]3[C@@H]4CC[C@H](O)[C@@]4(C)CC[C@@H]3[C@@]12C,-5.00642895810,0.00000000000,1,G1,304.47400,4.20510,87.28780,22,2,1,2,0,124,0,4,4,4,37.30,134.60558243949,1.67125644468,486.09891615236
A-1134,"2,2,4,4-Tetramethyl-7-oxa-3,20-diazadispiro(5.1.11.2)heneicosan-21-one","InChI=1S/C22H40N2O2/c1-19(2)16-21(17-20(3,4)24-19)18(25)23-22(26-21)14-12-10-8-6-5-7-9-11-13-15-22/h24H,5-17H2,1-4H3,(H,23,25)",IVVLFHBYPHTMJU-UHFFFAOYSA-N,CC1(C)CC2(CC(C)(C)N1)OC3(CCCCCCCCCCC3)NC2=O,-5.08466443850,0.00000000000,1,G1,364.57400,4.81320,106.00440,26,3,2,4,0,150,0,3,3,3,50.36,159.76033366634,1.77649808433,484.27163701889
A-1135,"2,4-bis(2-methylbutan-2-yl)phenol","InChI=1S/C16H26O/c1-7-15(3,4)12-9-10-14(17)13(11-12)16(5,6)8-2/h9-11,17H,7-8H2,1-6H3",WMVJWKURWRGJCI-UHFFFAOYSA-N,CCC(C)(C)c1ccc(O)c(c1)C(C)(C)CC,-4.89280485400,0.00000000000,1,G1,234.38300,4.76740,74.74080,17,1,1,1,4,96,1,0,0,1,20.23,105.87505801566,3.29563446011,388.51169405742
A-1137,2-ethylhexyl 2-{[bis({2-[(2-ethylhexyl)oxy]-2-oxoethyl}sulfanyl)(methyl)stannyl]sulfanyl}acetate,"InChI=1S/3C10H20O2S.CH3.Sn/c3*1-3-5-6-9(4-2)7-12-10(11)8-13;;/h3*9,13H,3-8H2,1-2H3;1H3;/q;;;;+3/p-3",ACRNSUGLVQJCOM-UHFFFAOYSA-K,CCCCC(CC)COC(=O)CS[Sn](C)(SCC(=O)OCC(CC)CCCC)SCC(=O)OCC(CC)CCCC,-5.39429229350,0.19546338319,4,G5,743.72700,9.03350,181.78700,41,9,0,10,27,242,0,0,0,0,78.90,263.85922028684,5.02395794174,608.42148313453
A-1139,oxydiethylene bis(chloroformate),InChI=1S/C6H8Cl2O5/c7-5(9)12-3-1-11-2-4-13-6(8)10/h1-4H2,XFSAZBKSWGOXRH-UHFFFAOYSA-N,ClC(=O)OCCOCCOC(Cl)=O,-4.88654900320,0.00000000000,1,G1,231.03100,1.75380,45.22100,13,5,0,7,6,76,0,0,0,0,61.83,84.83417394218,2.99610499791,154.40754636793
A-1140,tris[oxalato(2-)]dilutetium,"InChI=1S/3C2H2O4.2Lu/c3*3-1(4)2(5)6;;/h3*(H,3,4)(H,5,6);;/q;;;2*+3/p-6",WBXXVIQNIMIONY-UHFFFAOYSA-H,[Lu+3].[Lu+3].[O-]C(=O)C([O-])=O.[O-]C(=O)C([O-])=O.[O-]C(=O)C([O-])=O,-5.31103862850,0.02774484317,4,G5,613.98800,-10.54140,30.04200,20,12,0,14,0,126,0,0,0,0,240.78,166.91820789198,-0.00000005357,281.08518696265
A-1141,(3-phenoxyphenyl)methanol,"InChI=1S/C13H12O2/c14-10-11-5-4-8-13(9-11)15-12-6-2-1-3-7-12/h1-9,14H,10H2",KGANAERDZBAECK-UHFFFAOYSA-N,OCc1cccc(Oc2ccccc2)c1,-2.82587314160,0.04168658535,2,G3,200.23700,2.97120,58.88080,15,2,1,2,3,76,2,0,0,2,29.46,88.76121842166,2.17359762837,423.56090337132
A-1143,azacyclotridecan-2-one,"InChI=1S/C12H23NO/c14-12-10-8-6-4-2-1-3-5-7-9-11-13-12/h1-11H2,(H,13,14)",JHWNWJKBPDFINM-UHFFFAOYSA-N,O=C1CCCCCCCCCCCN1,-2.81950432040,0.16504477114,4,G5,197.32200,3.01720,59.17970,14,1,1,2,0,82,0,1,1,1,29.10,87.45916741631,2.14738513825,140.40071895208
A-1144,methyl 3-phenylacrylate,"InChI=1S/C10H10O2/c1-12-10(11)8-7-9-5-3-2-4-6-9/h2-8H,1H3/b8-7+",CCRCUPLGCSFEDV-BQYQJAHWSA-N,COC(=O)\C=C\c1ccccc1,-2.73434753010,0.03576321109,3,G5,162.18800,1.87280,47.49200,12,2,0,2,2,62,1,0,0,1,26.30,71.47663587445,2.63787016769,275.14987048989
A-1145,"2-methyl-4,6-bis(methylsulfanyl)benzene-1,3-diamine; 4-methyl-2,6-bis(methylsulfanyl)benzene-1,3-diamine","InChI=1S/C9H14N2S2/c1-5-8(10)6(12-2)4-7(13-3)9(5)11/h4H,10-11H2,1-3H3",TXDBDYPHJXUHEO-UHFFFAOYSA-N,CSc1cc(SC)c(N)c(C)c1N,-2.85692545830,0.13235062475,2,G3,214.35900,2.60322,63.56580,13,4,2,4,2,72,1,0,0,1,52.04,87.45223090744,3.36172088755,295.63100726665
A-1148,"4-allyl-1,2-dimethoxybenzene","InChI=1S/C11H14O2/c1-4-5-9-6-7-10(12-2)11(8-9)13-3/h4-8H,1-3H3/b5-4+",NNWHUJCUHAELCL-SNAWJCMRSA-N,COc1ccc(\C=C\C)cc1OC,-2.77822679450,0.00000000000,1,G1,178.23100,2.73690,54.25400,13,2,0,2,3,70,1,0,0,1,18.46,78.79360111831,3.05012042841,302.95863048827
A-1149,2-methylquinolin-8-ol,"InChI=1S/C10H9NO/c1-7-5-6-8-3-2-4-9(12)10(8)11-7/h2-6,12H,1H3",NBYLBWHHTUWMER-UHFFFAOYSA-N,Cc1ccc2cccc(O)c2n1,-1.73061861530,0.00000000000,1,G1,159.18800,2.24882,48.14480,12,2,1,2,0,60,2,0,0,2,33.12,70.49189149877,2.87714455843,423.10813525323
A-1152,cobalt(2+) bis[3-(3-ethylcyclopentyl)propanoate],"InChI=1S/2C10H18O2.Co/c2*1-2-8-3-4-9(7-8)5-6-10(11)12;/h2*8-9H,2-7H2,1H3,(H,11,12);/q;;+2/p-2",XSWKLHINRKWMTD-UHFFFAOYSA-L,[Co++].CCC1CCC(CCC([O-])=O)C1.CCC2CCC(CCC([O-])=O)C2,-3.13238319140,0.00000000000,1,G1,397.42100,2.68310,90.72600,25,4,0,5,8,147,0,2,2,2,80.26,162.89886523378,0.00000044308,349.89244295047
A-1153,"3-[2,2-dimethyl-3-(3-prop-2-enoyloxypropoxy)propoxy]propyl prop-2-enoate","InChI=1S/C17H28O6/c1-5-15(18)22-11-7-9-20-13-17(3,4)14-21-10-8-12-23-16(19)6-2/h5-6H,1-2,7-14H2,3-4H3",NQGDHQASSFDDLD-UHFFFAOYSA-N,CC(C)(COCCCOC(=O)C=C)COCCCOC(=O)C=C,-3.04954214030,0.00000000000,1,G1,328.40500,2.28440,86.96500,23,6,0,6,14,132,0,0,0,0,71.06,137.97634391192,3.53231220789,341.27988178758
A-1154,pentyl formate,"InChI=1S/C6H12O2/c1-2-3-4-5-8-6-7/h6H,2-5H2,1H3",DIQMPQMYFZXDAX-UHFFFAOYSA-N,CCCCCOC=O,-1.60205999130,0.00000000000,1,G1,116.16000,1.34960,31.54100,8,2,0,2,5,48,0,0,0,0,26.30,49.83902892936,2.61629309042,52.49022499567
A-1155,"1,3-dimethyl benzene-1,3-dicarboxylate","InChI=1S/C10H10O4/c1-13-9(11)7-4-3-5-8(6-7)10(12)14-2/h3-6H,1-2H3",VNGOYPQMJFJDLV-UHFFFAOYSA-N,COC(=O)c1cccc(c1)C(=O)OC,-2.82581991800,0.00000000000,1,G1,194.18600,1.25980,49.12100,14,4,0,4,2,74,1,0,0,1,52.60,81.44130623618,3.00633662648,325.64456038917
A-1156,ethenylbenzene,"InChI=1S/C8H8/c1-2-8-6-4-3-5-7-8/h2-7H,1H2",PPBRXRYQALVLMV-UHFFFAOYSA-N,C=Cc1ccccc1,-2.55526961610,0.10480842973,7,G5,104.15200,2.32960,36.53300,8,0,0,0,1,40,1,0,0,1,0.00,49.47168431611,2.99104691468,162.65300142116
A-1157,hexyl 2-methylprop-2-enoate,"InChI=1S/C10H18O2/c1-4-5-6-7-8-12-10(11)9(2)3/h2,4-8H2,1,3H3",LNCPIMCVTKXXOY-UHFFFAOYSA-N,CCCCCCOC(=O)C(C)=C,-3.75542103410,0.00000000000,1,G1,170.25200,2.68600,49.91500,12,2,0,2,6,70,0,0,0,0,26.30,74.60919435477,3.19978738373,149.91756911170
A-1158,"2,3,5,6-tetrachloropyridine",InChI=1S/C5HCl4N/c6-2-1-3(7)5(9)10-4(2)8/h1H,FATBKZJZAHWCSL-UHFFFAOYSA-N,Clc1cc(Cl)c(Cl)nc1Cl,-3.86142469070,0.06034518980,2,G3,216.88200,3.69520,44.27700,10,1,0,5,0,54,1,0,0,1,12.89,77.86411600797,3.28246290745,209.82001790212
A-1160,"4-naphthalen-2-yl-1,3-thiazol-2-amine","InChI=1S/C13H10N2S/c14-13-15-12(8-16-13)11-6-5-9-3-1-2-4-10(9)7-11/h1-8H,(H2,14,15)",GWDNDNTTXIIXRS-UHFFFAOYSA-N,Nc1scc(n1)c2ccc3ccccc3c2,-4.84954225200,0.00000000000,1,G1,226.30400,3.54550,69.46840,16,3,1,3,1,78,3,0,0,3,38.91,97.37006380567,2.18154328619,642.98256662524
A-1161,2-benzylheptan-1-ol,"InChI=1S/C14H22O/c1-2-3-5-10-14(12-15)11-13-8-6-4-7-9-13/h4,6-9,14-15H,2-3,5,10-12H2,1H3",CGMOOAUESLSUKM-UHFFFAOYSA-N,CCCCCC(CO)Cc1ccccc1,-3.84326856230,0.00000000000,1,G1,206.32900,3.41790,64.86380,15,1,1,1,7,84,1,0,0,1,20.23,93.14517378687,2.33161649546,242.77542995949
A-1163,decanal,"InChI=1S/C10H20O/c1-2-3-4-5-6-7-8-9-10-11/h10H,2-9H2,1H3",KSMVZQYAVGTKIV-UHFFFAOYSA-N,CCCCCCCCCC=O,-3.72552550260,0.00000000000,1,G1,156.26900,3.32600,48.67400,11,1,0,1,8,66,0,0,0,0,17.07,70.18525215744,2.73767156857,78.94196246616
A-1165,"(2E)-3,7-dimethylocta-2,6-dien-1-yl acetate","InChI=1S/C12H20O2/c1-10(2)6-5-7-11(3)8-9-14-12(4)13/h6,8H,5,7,9H2,1-4H3/b11-8+",HIGQPQRQIQDZMP-DHZHZOJOSA-N,CC(=O)OC/C=C(C)/CCC=C(C)C,-3.83050017710,0.00000000000,1,G1,196.29000,3.24220,59.05500,14,2,0,2,5,80,0,0,0,0,26.30,86.64947555137,3.67044852713,232.70628424349
A-1167,"4,8-dimethyldeca-4,9-dienal","InChI=1S/C12H20O/c1-4-11(2)7-5-8-12(3)9-6-10-13/h4,8,10-11H,1,5-7,9H2,2-3H3/b12-8+",QVEOSYKPYFNQAZ-XYOKQWHBSA-N,CC(CC/C=C(C)/CCC=O)C=C,-3.79357604970,0.00000000000,1,G1,180.29100,3.51410,57.65000,13,1,0,1,7,74,0,0,0,0,17.07,81.53593032187,3.57077038564,179.56349808389
A-1168,"methyl 2,2,2-trifluoroacetate","InChI=1S/C3H3F3O2/c1-8-2(7)3(4,5)6/h1H3",VMVNZNXAVJHNDJ-UHFFFAOYSA-N,COC(=O)C(F)(F)F,-0.64798370340,0.00000000000,1,G1,128.04900,0.72170,18.07100,8,2,0,5,0,48,0,0,0,0,26.30,43.24080879495,3.82337845522,95.19188266301
A-1170,3-ethoxy-4-hydroxybenzaldehyde,"InChI=1S/C9H10O3/c1-2-12-9-5-7(6-10)3-4-8(9)11/h3-6,11H,2H2,1H3",CBOQJANXLMLOSS-UHFFFAOYSA-N,CCOc1cc(C=O)ccc1O,-1.76420226780,0.00000000000,1,G1,166.17600,1.60340,44.66330,12,3,1,3,3,64,1,0,0,1,46.53,70.59553054443,2.98807008141,281.10217875775
A-1172,4-phenylbutan-2-one,"InChI=1S/C10H12O/c1-9(11)7-8-10-5-3-2-4-6-10/h2-6H,7-8H2,1H3",AKGGYBADQZYZPD-UHFFFAOYSA-N,CC(=O)CCc1ccccc1,-1.71601799570,0.00000000000,1,G1,148.20500,2.20820,45.44400,11,1,0,1,3,58,1,0,0,1,17.07,67.05269367713,2.45301874353,225.88790998034
A-1173,"N-(4-chloro-2,5-dimethoxyphenyl)-3-oxobutanamide","InChI=1S/C12H14ClNO4/c1-7(15)4-12(16)14-9-6-10(17-2)8(13)5-11(9)18-3/h5-6H,4H2,1-3H3,(H,14,16)",MOUVJGIRLPZEES-UHFFFAOYSA-N,COc1cc(NC(=O)CC(C)=O)c(OC)cc1Cl,-2.97924477840,0.00000000000,1,G1,271.70000,2.27480,68.48370,18,4,1,6,5,98,1,0,0,1,64.63,110.02431887547,2.99033859515,473.39036914789
A-1174,3-phenylprop-2-en-1-yl acetate,"InChI=1S/C11H12O2/c1-10(12)13-9-5-8-11-6-3-2-4-7-11/h2-8H,9H2,1H3/b8-5+",WJSDHUCWMSHDCR-VMPITWQZSA-N,CC(=O)OC\C=C\c1ccccc1,-2.79272453420,0.02111299875,2,G3,176.21500,2.26290,52.10900,13,2,0,2,3,68,1,0,0,1,26.30,77.84157798885,2.36771932004,288.21840549260
A-1177,"[2-[2-oxo-5-(2,4,4-trimethylpentan-2-yl)-3H-1-benzofuran-3-yl]-4-(2,4,4-trimethylpentan-2-yl)phenyl] acetate","InChI=1S/C32H44O4/c1-20(33)35-25-14-12-21(31(8,9)18-29(2,3)4)16-23(25)27-24-17-22(13-15-26(24)36-28(27)34)32(10,11)19-30(5,6)7/h12-17,27H,18-19H2,1-11H3",UHPDROGOQWZCNC-UHFFFAOYSA-N,CC(=O)Oc1ccc(cc1C2C(=O)Oc3ccc(cc23)C(C)(C)CC(C)(C)C)C(C)(C)CC(C)(C)C,-6.69258256230,0.00000000000,1,G1,492.70000,8.09040,145.86700,36,4,0,4,6,196,2,0,1,3,52.60,217.33164311907,2.15625144572,1155.65368893361
A-1179,2-hydroxypropanoic acid - 5-{[(2-ethylhexyl)carbamoyl]oxy}-2-methylphenyl [2-(dimethylamino)ethyl]carbamate (1:1) (non-preferred name),"InChI=1S/C21H35N3O4.C3H6O3/c1-6-8-9-17(7-2)15-28-20(25)22-18-11-10-16(3)19(14-18)23-21(26)27-13-12-24(4)5;1-2(4)3(5)6/h10-11,14,17H,6-9,12-13,15H2,1-5H3,(H,22,25)(H,23,26);2,4H,1H3,(H,5,6)",HYNJGJWCXRMUIG-UHFFFAOYSA-N,CCCCC(CC)COC(=O)Nc1ccc(C)c(NC(=O)OCCN(C)C)c1.CC(O)C(O)=O,-0.23519382480,0.00000000000,1,G1,483.60600,4.32182,132.29700,34,7,4,10,12,194,1,0,0,1,137.43,202.16587463312,0.00000159893,754.08216499687
A-1181,"2,6-dimethyloctan-2-ol","InChI=1S/C10H22O/c1-5-9(2)7-6-8-10(3,4)11/h9,11H,5-8H2,1-4H3",WRFXXJKURVTLSY-UHFFFAOYSA-N,CCC(C)CCCC(C)(C)O,-2.74934468470,0.00000000000,1,G1,158.28500,2.97370,49.60380,11,1,1,1,5,68,0,0,0,0,20.23,70.81796380960,3.27571627533,91.53612452348
A-1182,troclosene sodium,"InChI=1S/C3HCl2N3O3.Na/c4-7-1(9)6-2(10)8(5)3(7)11;/h(H,6,9,10);/q;+1/p-1",MSFGZHUJTJBYFA-UHFFFAOYSA-M,[Na+].ClN1C(=O)[N-]C(=O)N(Cl)C1=O,-0.89516001140,0.50793475015,4,G4,219.94700,-4.66480,37.05400,12,5,0,9,0,60,1,0,0,1,75.17,97.23813007724,0.00000121000,408.08202436151
A-1185,3-amino-4-hydroxybenzene-1-sulfonic acid,"InChI=1S/C6H7NO4S/c7-5-3-4(12(9,10)11)1-2-6(5)8/h1-3,8H,7H2,(H,9,10,11)",ULUIMLJNTCECJU-UHFFFAOYSA-N,Nc1cc(ccc1O)[S](O)(=O)=O,-1.82974473690,0.00000000000,1,G1,189.19200,0.22110,42.33380,12,4,3,6,1,66,1,0,0,1,100.62,69.19416357875,3.32729599902,398.00915429685
A-1186,"11,17,21-trihydroxypregn-4-ene-3,20-dione","InChI=1S/C21H30O5/c1-19-7-5-13(23)9-12(19)3-4-14-15-6-8-21(26,17(25)11-22)20(15,2)10-16(24)18(14)19/h9,14-16,18,22,24,26H,3-8,10-11H2,1-2H3/t14-,15-,16-,18+,19-,20-,21-/m0/s1",JYGXADMDTFJGBT-VWUMJDOOSA-N,C[C@]12CCC(=O)C=C1CC[C@H]3[C@@H]4CC[C@](O)(C(=O)CO)[C@@]4(C)C[C@H](O)[C@H]23,-3.11210924380,0.02900462190,2,G3,362.46600,1.78160,95.14240,26,5,3,5,2,144,0,3,4,4,94.83,154.03091112614,1.73508320120,683.88892175368
A-1188,octadec-9-enoic acid - 2-aminoethanol (1:1),"InChI=1S/C18H34O2.C2H7NO/c1-2-3-4-5-6-7-8-9-10-11-12-13-14-15-16-17-18(19)20;3-1-2-4/h9-10H,2-8,11-17H2,1H3,(H,19,20);4H,1-3H2/b10-9+;",KGWDUNBJIMUFAP-RRABGKBLSA-N,CCCCCCCC/C=C/CCCCCCCC(O)=O.NCCO,-3.08883444980,0.00000000000,1,G1,343.55200,5.04590,103.22800,24,3,3,4,16,144,0,0,0,0,83.55,149.07925962416,0.00000000000,265.60957573422
A-1193,"2-methyl-4-(2,2,3-trimethylcyclopent-3-en-1-yl)butan-1-ol","InChI=1S/C13H24O/c1-10(9-14)5-7-12-8-6-11(2)13(12,3)4/h6,10,12,14H,5,7-9H2,1-4H3",CYVGAJHMMVDTDZ-UHFFFAOYSA-N,CC(CO)CCC1CC=C(C)C1(C)C,-3.84274640640,0.00000000000,1,G1,196.33400,3.38740,61.12880,14,1,1,1,4,82,0,0,1,1,20.23,88.21735596707,2.41431026527,215.27545260759
A-1196,"N,N-dimethyldodecanamide","InChI=1S/C14H29NO/c1-4-5-6-7-8-9-10-11-12-13-14(16)15(2)3/h4-13H2,1-3H3",BDYUSDIJIDGWCY-UHFFFAOYSA-N,CCCCCCCCCCCC(=O)N(C)C,-3.90930705050,0.00000000000,1,G1,227.39200,3.99550,70.53800,16,1,0,2,10,96,0,0,0,0,20.31,101.40485428523,3.06855151382,166.11827660205
A-1197,4-tert-butylcyclohexan-1-ol,"InChI=1S/C10H20O/c1-10(2,3)8-4-6-9(11)7-5-8/h8-9,11H,4-7H2,1-3H3",CCOQPGVQAWPUPE-UHFFFAOYSA-N,CC(C)(C)C1CCC(O)CC1,-3.10326212520,0.16902608991,4,G5,156.26900,2.58360,47.41980,11,1,1,1,0,66,0,1,1,1,20.23,69.81213265607,2.39361504851,115.32469185181
A-1199,"N,N-dimethyltetradecan-1-amine","InChI=1S/C16H35N/c1-4-5-6-7-8-9-10-11-12-13-14-15-16-17(2)3/h4-16H2,1-3H3",SFBHPFQSSDCYSL-UHFFFAOYSA-N,CCCCCCCCCCCCCCN(C)C,-3.93569256080,0.00000000000,1,G1,241.46300,5.24910,79.63200,17,1,0,1,13,104,0,0,0,0,3.24,109.97321641398,2.89258864562,131.48686830126
A-1203,1-chloropropane,"InChI=1S/C3H7Cl/c1-2-3-4/h2-3H2,1H3",SNMVRZFUUCLYTO-UHFFFAOYSA-N,CCCCl,-1.45340682030,1.41254158431,3,G4,78.54200,1.63520,21.01100,4,0,0,1,1,26,0,0,0,0,0.00,31.77240148350,1.97474487139,5.24511249784
A-1204,"Phosphorodithioic acid, mixed O,O-bis(1,3-dimethylbutyl and iso-Pr) esters, zinc salts","InChI=1S/2C9H21O2PS2.Zn/c2*1-7(2)6-9(5)11-12(13,14)10-8(3)4;/h2*7-9H,6H2,1-5H3,(H,13,14);/q;;+2/p-2",ZLJYMIJYVMPKAH-UHFFFAOYSA-L,[Zn++].CC(C)CC(C)O[P]([S-])(=S)OC(C)C.CC(C)CC(C)O[P]([S-])(=S)OC(C)C,-2.31897491330,0.00000000000,1,G1,576.12000,7.26550,135.74600,29,8,0,11,12,172,0,0,0,0,36.92,213.68042534991,-0.00000045067,464.25278127282