ID,Name,InChI,InChIKey,SMILES,Solubility,SD,Ocurrences,Group,MolWt,MolLogP,MolMR,HeavyAtomCount,NumHAcceptors,NumHDonors,NumHeteroatoms,NumRotatableBonds,NumValenceElectrons,NumAromaticRings,NumSaturatedRings,NumAliphaticRings,RingCount,TPSA,LabuteASA,BalabanJ,BertzCT
A-367,"disodium 2,2'-ethene-1,2-diylbis[5-({4-anilino-6-[(2-hydroxyethyl)(methyl)amino]-1,3,5-triazin-2-yl}amino)benzenesulfonate]","InChI=1S/C38H40N12O8S2.2Na/c1-49(19-21-51)37-45-33(39-27-9-5-3-6-10-27)43-35(47-37)41-29-17-15-25(31(23-29)59(53,54)55)13-14-26-16-18-30(24-32(26)60(56,57)58)42-36-44-34(40-28-11-7-4-8-12-28)46-38(48-36)50(2)20-22-52;;/h3-18,23-24,51-52H,19-22H2,1-2H3,(H,53,54,55)(H,56,57,58)(H2,39,41,43,45,47)(H2,40,42,44,46,48);;/q;2*+1/p-2/b14-13+;;",VVYVUOFMPAXVCH-QDBORUFSSA-L,[Na+].[Na+].CN(CCO)c1nc(Nc2ccccc2)nc(Nc3ccc(/C=C/c4ccc(Nc5nc(Nc6ccccc6)nc(n5)N(C)CCO)cc4[S]([O-])(=O)=O)c(c3)[S]([O-])(=O)=O)n1,-3.06932115170,0.00000000000,1,G1,900.91200,-2.12540,224.11880,62,20,6,24,18,312,6,0,0,6,286.80,401.65635076322,0.00000422499,2525.07719654394
A-368,"2,3,5-trimethylphenol","InChI=1S/C9H12O/c1-6-4-7(2)8(3)9(10)5-6/h4-5,10H,1-3H3",OGRAOKJKVGDSFR-UHFFFAOYSA-N,Cc1cc(C)c(C)c(O)c1,-2.25220300390,0.00000000000,1,G1,136.19400,2.31746,42.31780,10,1,1,1,0,54,1,0,0,1,20.23,61.32046321488,3.31053287472,227.90033336358
A-369,"1,1,1-trifluoroethane","InChI=1S/C2H3F3/c1-2(3,4)5/h1H3",UJPMYEOUBPIPHQ-UHFFFAOYSA-N,CC(F)(F)F,-2.04310138700,0.00000000000,1,G1,84.04000,1.56860,11.72900,5,0,0,3,0,32,0,0,0,0,0.00,27.60079935100,3.02371578407,20.36452797660
A-370,2-hydroxy-1-[4-(2-hydroxyethoxy)phenyl]-2-methylpropan-1-one,"InChI=1S/C12H16O4/c1-12(2,15)11(14)9-3-5-10(6-4-9)16-8-7-13/h3-6,13,15H,7-8H2,1-2H3",GJKGAPPUXSSCFI-UHFFFAOYSA-N,CC(C)(O)C(=O)c1ccc(OCCO)cc1,-1.46993047920,0.00000000000,1,G1,224.25600,1.01130,59.65110,16,4,2,4,5,88,1,0,0,1,66.76,94.48459063982,2.75087183809,348.27666418207
A-371,isothiocyanatomethane,InChI=1S/C2H3NS/c1-3-2-4/h1H3,LGDSHSYDSCRFAB-UHFFFAOYSA-N,CN=C=S,-0.98322259040,0.01461833567,3,G5,73.12000,0.71900,20.95000,4,2,0,2,0,22,0,0,0,0,12.36,30.35829587529,3.10861229667,44.00000000000
A-372,"1,3-dimethyl-1,3-diphenylurea","InChI=1S/C15H16N2O/c1-16(13-9-5-3-6-10-13)15(18)17(2)14-11-7-4-8-12-14/h3-12H,1-2H3",ADCBKYIHQQCFHE-UHFFFAOYSA-N,CN(C(=O)N(C)c1ccccc1)c2ccccc2,-3.49755758110,0.00000000000,1,G1,240.30600,3.37920,75.08600,18,1,0,3,2,92,2,0,0,2,23.55,107.26451310920,2.17146571890,463.03151518320
A-373,"1,4-dioxacyclohexadecane-5,16-dione",InChI=1S/C14H24O4/c15-13-9-7-5-3-1-2-4-6-8-10-14(16)18-12-11-17-13/h1-12H2,GJJSUPSPZIZYPM-UHFFFAOYSA-N,O=C1CCCCCCCCCCC(=O)OCCO1,-3.53375850500,0.00000000000,1,G1,256.34200,2.98740,68.08800,18,4,0,4,0,104,0,1,1,1,52.60,109.02780202056,2.21872788245,224.17854646049
A-374,"Alcohols, C9-11-iso-, C10-rich","InChI=1S/C10H22O/c1-10(2)8-6-4-3-5-7-9-11/h10-11H,3-9H2,1-2H3",PLLBRTOLHQQAQQ-UHFFFAOYSA-N,CC(C)CCCCCCCO,-3.32437849720,0.21317747175,2,G3,158.28500,2.97530,49.62580,11,1,1,1,7,68,0,0,0,0,20.23,70.81796380960,2.79642187198,69.27302875388
A-376,cobalt(2+) dipropanoate,"InChI=1S/2C3H6O2.Co/c2*1-2-3(4)5;/h2*2H2,1H3,(H,4,5);/q;;+2/p-2",TZWGXFOSKIHUPW-UHFFFAOYSA-L,[Co++].CCC([O-])=O.CCC([O-])=O,-0.43766231730,0.00000000000,1,G1,205.07500,-1.70990,30.59600,11,4,0,5,2,67,0,0,0,0,80.26,75.80133793928,-0.00000010667,99.14991061830
A-377,ethyl 3-phenyloxirane-2-carboxylate,"InChI=1S/C11H12O3/c1-2-13-11(12)10-9(14-10)8-6-4-3-5-7-8/h3-7,9-10H,2H2,1H3",GOMAKLPNAAZVCJ-UHFFFAOYSA-N,CCOC(=O)C1OC1c2ccccc2,-2.40965123770,0.00000000000,1,G1,192.21400,1.68960,50.68900,14,3,0,3,3,74,1,1,1,2,38.83,82.63889509701,1.96375139823,320.56434575431
A-378,"2,6-dimethylheptan-2-ol","InChI=1S/C9H20O/c1-8(2)6-5-7-9(3,4)10/h8,10H,5-7H2,1-4H3",HGDVHRITTGWMJK-UHFFFAOYSA-N,CC(C)CCCC(C)(C)O,-2.28698363410,0.00000000000,1,G1,144.25800,2.58360,44.98680,10,1,1,1,4,62,0,0,0,0,20.23,64.45302169520,3.20545533741,79.21928094887
A-379,benzyl propanoate,"InChI=1S/C10H12O2/c1-2-10(11)12-8-9-6-4-3-5-7-9/h3-7H,2,8H2,1H3",VHOMAPWVLKRQAZ-UHFFFAOYSA-N,CCC(=O)OCc1ccccc1,-2.34497982700,0.43520195265,2,G3,164.20400,2.13980,46.52900,12,2,0,2,3,64,1,0,0,1,26.30,72.16623890663,2.38453586289,241.27530899395
A-381,1-ethynylcyclohexyl acetate,"InChI=1S/C10H14O2/c1-3-10(12-9(2)11)7-5-4-6-8-10/h1H,4-8H2,2H3",YASSLXHVJQGNOK-UHFFFAOYSA-N,CC(=O)OC1(CCCCC1)C#C,-2.35221517900,0.00000000000,1,G1,166.22000,1.88560,46.41500,12,2,0,2,1,66,0,1,1,1,26.30,73.29219162528,2.61462550504,206.36869409007
A-382,triethylamine,"InChI=1S/C6H15N/c1-4-7(5-2)6-3/h4-6H2,1-3H3",ZMANZCXQSJIPKH-UHFFFAOYSA-N,CCN(CC)CC,-0.13768298350,0.33549341830,7,G5,101.19300,1.34810,33.46200,7,1,0,1,3,44,0,0,0,0,3.24,46.32379527002,2.99230288319,25.65148445440
A-383,"N-(3-aminopropyl)-N'-octadec-9-en-1-ylpropane-1,3-diamine","InChI=1S/C24H51N3/c1-2-3-4-5-6-7-8-9-10-11-12-13-14-15-16-17-21-26-23-19-24-27-22-18-20-25/h9-10,26-27H,2-8,11-25H2,1H3/b10-9-",ZXUXEWRICDHNKF-KTKRTIGZSA-N,CCCCCCCC\C=C/CCCCCCCCNCCCNCCCN,-3.71839133520,0.00000000000,1,G1,381.69300,5.94200,123.47980,27,3,3,3,23,162,0,0,0,0,50.08,170.88293169100,3.03180180471,278.79985067417
A-384,(methylsulfanyl)methane,InChI=1S/C2H6S/c1-3-2/h1-2H3,QMMFVYPAHWMCMS-UHFFFAOYSA-N,CSC,-0.93121890220,0.22556545142,4,G5,62.13700,0.97920,19.43900,3,1,0,1,0,20,0,0,0,0,0.00,25.22730316759,1.63299316186,2.75488750216
A-385,sodium (methylcarbamothioyl)sulfanide,"InChI=1S/C2H5NS2.Na/c1-3-2(4)5;/h1H3,(H2,3,4,5);/q;+1/p-1",AFCCDDWKHLHPDF-UHFFFAOYSA-M,[Na+].CNC([S-])=S,0.74732510800,0.00000000000,1,G1,129.18500,-2.95840,29.02270,6,2,1,4,0,30,0,0,0,0,12.03,70.58130185915,0.00000000000,46.81274391313
A-387,"2,4,5-trichloroaniline","InChI=1S/C6H4Cl3N/c7-3-1-5(9)6(10)2-4(3)8/h1-2H,10H2",GUMCAKKKNKYFEB-UHFFFAOYSA-N,Nc1cc(Cl)c(Cl)cc1Cl,-3.43595048560,0.00000000000,1,G1,196.46400,3.22900,45.88440,10,1,1,4,0,54,1,0,0,1,26.02,73.68109249715,3.28246290745,209.16499587007
A-388,2-chloro-6-(trichloromethyl)pyridine,"InChI=1S/C6H3Cl4N/c7-5-3-1-2-4(11-5)6(8,9)10/h1-3H",DCUJJWWUNKIJPH-UHFFFAOYSA-N,Clc1cccc(n1)C(Cl)(Cl)Cl,-3.50610836400,0.15166453092,3,G5,230.90900,3.56170,48.48400,11,1,0,5,0,60,1,0,0,1,12.89,84.22905812237,3.05990169222,255.00435022837
A-389,3-hydroxynaphthalene-2-carboxylic acid,"InChI=1S/C11H8O3/c12-10-6-8-4-2-1-3-7(8)5-9(10)11(13)14/h1-6,12H,(H,13,14)",ALKYHXVLJMQRLQ-UHFFFAOYSA-N,OC(=O)c1cc2ccccc2cc1O,-3.41724558350,0.57133375180,2,G2,188.18200,2.24360,52.57210,14,2,2,3,1,70,2,0,0,2,57.53,80.22799937006,2.77051081027,502.85884534514
A-390,"(3E)-penta-1,3-diene; (3Z)-penta-1,3-diene; cyclopentene","InChI=1S/3C5H8/c1-2-4-5-3-1;2*1-3-5-4-2/h1-2H,3-5H2;2*3-5H,1H2,2H3/b;5-4+;5-4-",UEGXXVLLCWTKGN-GIHNHNQOSA-N,C\C=C/C=C.C/C=C/C=C.C1CC=CC1,-2.45426507430,0.27754722430,2,G3,204.35700,5.22350,73.01300,15,0,0,0,2,84,0,0,1,1,0.00,95.40625662199,0.00000000000,182.07820003462
A-391,3-(3-propan-2-ylphenyl)butanal,"InChI=1S/C13H18O/c1-10(2)12-5-4-6-13(9-12)11(3)7-8-14/h4-6,8-11H,7H2,1-3H3",OHRBQTOZYGEWCJ-UHFFFAOYSA-N,CC(C)c1cccc(c1)C(C)CC=O,-3.67734684560,0.00000000000,1,G1,190.28600,3.50250,59.62700,14,1,0,1,4,76,1,0,0,1,17.07,86.14752002032,2.87065485356,301.85880203258
A-396,"hexasodium 4-amino-3-[2-(5-{[4-chloro-6-({3-[2-(sulfonatooxy)ethanesulfonyl]phenyl}amino)-1,3,5-triazin-2-yl]amino}-2-sulfonatophenyl)diazen-1-yl]-6-[2-(1,5-disulfonatonaphthalen-2-yl)diazen-1-yl]-5-hydroxynaphthalene-2,7-disulfonate","InChI=1S/C37H29ClN10O22S7.6Na/c38-35-42-36(40-18-3-1-4-20(15-18)71(50,51)12-11-70-77(67,68)69)44-37(43-35)41-19-7-10-26(73(55,56)57)24(16-19)46-47-31-27(74(58,59)60)13-17-14-28(75(61,62)63)32(33(49)29(17)30(31)39)48-45-23-9-8-21-22(34(23)76(64,65)66)5-2-6-25(21)72(52,53)54;;;;;;/h1-10,13-16,49H,11-12,39H2,(H,52,53,54)(H,55,56,57)(H,58,59,60)(H,61,62,63)(H,64,65,66)(H,67,68,69)(H2,40,41,42,43,44);;;;;;/q;6*+1/p-6",CRBABZUVIKGIMW-UHFFFAOYSA-H,[Na+].[Na+].[Na+].[Na+].[Na+].[Na+].Nc1c(N=Nc2cc(Nc3nc(Cl)nc(Nc4cccc(c4)[S](=O)(=O)CCO[S]([O-])(=O)=O)n3)ccc2[S]([O-])(=O)=O)c(cc5cc(c(N=Nc6ccc7c(cccc7[S]([O-])(=O)=O)c6[S]([O-])(=O)=O)c(O)c15)[S]([O-])(=O)=O)[S]([O-])(=O)=O,-1.27702116400,0.21068139395,2,G3,1357.50100,-14.76780,254.12960,83,32,4,46,18,408,7,0,0,7,544.99,608.04276919501,0.00000574083,4584.92161205478
A-397,"1,1,2,2,3,3,4-heptafluorocyclopentane","InChI=1S/C5H3F7/c6-2-1-3(7,8)5(11,12)4(2,9)10/h2H,1H2",IDBYQQQHBYGLEQ-UHFFFAOYSA-N,FC1CC(F)(F)C(F)(F)C1(F)F,-2.43688091800,0.00000000000,1,G1,196.06500,2.63410,24.35400,12,0,0,7,0,72,0,1,1,1,0.00,62.35193615237,3.09977727339,195.97341629985
A-398,tributyl[(tributylstannyl)oxy]stannane,"InChI=1S/6C4H9.O.2Sn/c6*1-3-4-2;;;/h6*1,3-4H2,2H3;;;",APQHKWPGGHMYKJ-UHFFFAOYSA-N,CCCC[Sn](CCCC)(CCCC)O[Sn](CCCC)(CCCC)CCCC,-3.92285151350,0.00000000000,1,G1,596.11700,9.69460,130.88300,27,1,0,3,20,164,0,0,0,0,9.23,182.57994339027,5.66327490922,245.95415876346
A-400,"Hydrocarbons, C5-rich","InChI=1S/C5H12/c1-3-5-4-2/h3-5H2,1-2H3",OFBQJSOFQDEBGM-UHFFFAOYSA-N,CCCCC,-3.00698400600,0.42142633658,8,G5,72.15100,2.19650,25.19900,5,0,0,0,2,32,0,0,0,0,0.00,34.19901948542,2.19060968716,7.50977500433
A-402,2-methoxy-4-[(1E)-prop-1-en-1-yl]phenol,"InChI=1S/C10H12O2/c1-3-4-8-5-6-9(11)10(7-8)12-2/h3-7,11H,1-2H3/b4-3+",BJIOGJUNALELMI-ONEGZZNKSA-N,COc1cc(\C=C\C)ccc1O,-2.36473749710,0.00000000000,1,G1,164.20400,2.43390,49.36680,12,2,1,2,2,64,1,0,0,1,29.46,72.10934752660,3.04582896471,289.89009548556
A-403,"3,4-dimethylbenzaldehyde","InChI=1S/C9H10O/c1-7-3-4-9(6-10)5-8(7)2/h3-6H,1-2H3",POQJHLBMLVTHAU-UHFFFAOYSA-N,Cc1ccc(C=O)cc1C,-2.27703507900,0.00000000000,1,G1,134.17800,2.11594,41.30350,10,1,0,1,1,52,1,0,0,1,17.07,60.68775156273,3.15890173216,250.90522086574
A-405,"1-phenylethan-1-aminium hydrate hydrogen [(2R,3S)-3-methyloxiran-2-yl]phosphonate","InChI=1S/C8H11N.C3H7O4P.H2O/c1-7(9)8-5-3-2-4-6-8;1-2-3(7-2)8(4,5)6;/h2-7H,9H2,1H3;2-3H,1H3,(H2,4,5,6);1H2/t;2-,3+;/m.0./s1",XDXCFDPDYZSCAG-AFHMRPNKSA-N,O.CC([NH3+])c1ccccc1.C[C@@H]2O[C@@H]2[P](O)([O-])=O,-0.59413933780,0.00000000000,1,G1,277.25700,-0.55830,65.51920,18,3,2,7,2,104,1,1,1,2,132.03,106.24171096715,0.00000030600,391.67986250701
A-407,"disodium 2-(2,4,5,7-tetraiodo-6-oxido-3-oxoxanthen-9-yl)benzoate","InChI=1S/C20H8I4O5.2Na/c21-11-5-9-13(7-3-1-2-4-8(7)20(27)28)10-6-12(22)17(26)15(24)19(10)29-18(9)14(23)16(11)25;;/h1-6,25H,(H,27,28);;/q;2*+1/p-2",IINNWAYUJNWZRM-UHFFFAOYSA-L,[Na+].[Na+].[O-]C(=O)c1ccccc1C2=C3C=C(I)C(=O)C(=C3Oc4c(I)c([O-])c(I)cc24)I,-1.09931504070,0.05457223470,2,G3,879.85900,-1.57170,139.18650,31,5,0,11,2,146,2,0,2,4,93.40,275.16170331598,0.00000170667,1370.39324179503
A-409,butyl acetate,"InChI=1S/C6H12O2/c1-3-4-5-8-6(2)7/h3-5H2,1-2H3",DKPFZGUDAPQIHT-UHFFFAOYSA-N,CCCCOC(C)=O,-1.21995856330,0.14820626641,6,G5,116.16000,1.34960,31.54100,8,2,0,2,3,48,0,0,0,0,26.30,49.83902892936,2.82235455425,68.92878689342
A-410,"4,4'-diaminobiphenyl-2,2'-disulfonic acid","InChI=1S/C12H12N2O6S2/c13-7-1-3-9(11(5-7)21(15,16)17)10-4-2-8(14)6-12(10)22(18,19)20/h1-6H,13-14H2,(H,15,16,17)(H,18,19,20)",MBJAPGAZEWPEFB-UHFFFAOYSA-N,Nc1ccc(c2ccc(N)cc2[S](O)(=O)=O)c(c1)[S](O)(=O)=O,-2.69192727060,0.03409293090,2,G3,344.37000,1.01140,80.33200,22,6,4,10,3,118,2,0,0,2,160.78,126.42555073967,2.90429183731,872.07692918208
A-411,4-hydroxy-3-methoxy-5-nitrobenzaldehyde,"InChI=1S/C8H7NO5/c1-14-7-3-5(4-10)2-6(8(7)11)9(12)13/h2-4,11H,1H3",ZEHYRTJBFMZHCY-UHFFFAOYSA-N,COc1cc(C=O)cc(c1O)[N+]([O-])=O,-2.44968992990,0.00000000000,1,G1,197.14600,1.12150,46.70070,14,5,1,6,3,74,1,0,0,1,89.67,78.88356415254,3.41001236311,387.56318309867
A-412,N-[3-(diethylamino)phenyl]acetamide,"InChI=1S/C12H18N2O/c1-4-14(5-2)12-8-6-7-11(9-12)13-10(3)15/h6-9H,4-5H2,1-3H3,(H,13,15)",FPUKYOSOAAPHTN-UHFFFAOYSA-N,CCN(CC)c1cccc(NC(C)=O)c1,-2.46937803060,0.00000000000,1,G1,206.28900,2.49120,64.30670,15,2,1,3,4,82,1,0,0,1,32.34,91.09227375973,2.85638701599,332.14893357598
A-415,plumbanone,InChI=1S/O.Pb,YEXPOXQUZXUXJW-UHFFFAOYSA-N,O=[Pb],-3.50235513240,0.00000000000,1,G1,223.19900,-0.49960,6.44050,2,1,0,2,0,10,0,0,0,0,17.07,28.82298984977,2.00000000000,2.00000000000
A-416,"1,3-bis(2-methylphenyl)guanidine","InChI=1S/C15H17N3/c1-11-7-3-5-9-13(11)17-15(16)18-14-10-6-4-8-12(14)2/h3-10H,1-2H3,(H3,16,17,18)",OPNUROKCUBTKLF-UHFFFAOYSA-N,Cc1ccccc1NC(N)=Nc2ccccc2C,-3.53388458350,0.00000000000,1,G1,239.32200,3.36174,77.26310,18,1,2,3,2,92,2,0,0,2,50.41,107.36839903523,2.20466553513,573.45632664377
A-420,"2-ethylpentyl 3-(3,5-ditert-butyl-4-hydroxyphenyl)propanoate","InChI=1S/C24H40O3/c1-9-11-17(10-2)16-27-21(25)13-12-18-14-19(23(3,4)5)22(26)20(15-18)24(6,7)8/h14-15,17,26H,9-13,16H2,1-8H3",PJZFNEYJOZUEGS-UHFFFAOYSA-N,CCCC(CC)COC(=O)CCc1cc(c(O)c(c1)C(C)(C)C)C(C)(C)C,-7.09873714960,3.27021353285,4,G4,376.58100,6.28930,113.47580,27,3,1,3,8,154,1,0,0,1,46.53,166.06966226038,2.89757943528,582.48906071665
A-421,Longifolene,"InChI=1S/C15H24/c1-10-11-6-7-12-13(11)14(2,3)8-5-9-15(10,12)4/h11-13H,1,5-9H2,2-4H3",PDSNLYSELAIEBU-UHFFFAOYSA-N,CC1(C)CCCC2(C)C3CCC(C13)C2=C,-4.41276242720,0.00000000000,1,G1,204.35700,4.41500,64.58300,15,0,0,0,0,84,0,3,3,3,0.00,94.14134413661,2.09717126108,312.00000000000
A-422,2-phenylethyl 2-hydroxybenzoate,"InChI=1S/C15H14O3/c16-14-9-5-4-8-13(14)15(17)18-11-10-12-6-2-1-3-7-12/h1-9,16H,10-11H2",YNMSDIQQNIRGDP-UHFFFAOYSA-N,Oc1ccccc1C(=O)OCCc2ccccc2,-4.48910533490,0.00000000000,1,G1,242.27400,2.79170,68.53530,18,3,1,3,4,92,2,0,0,2,46.53,105.65262475050,1.87881027299,520.27174017887
A-425,"propane-1,2-diyl dibenzoate","InChI=1S/C17H16O4/c1-13(21-17(19)15-10-6-3-7-11-15)12-20-16(18)14-8-4-2-5-9-14/h2-11,13H,12H2,1H3",UMVMVEZHMZTUHD-UHFFFAOYSA-N,CC(COC(=O)c1ccccc1)OC(=O)c2ccccc2,-4.56730293770,0.00000000000,1,G1,284.31100,3.08890,78.04400,21,4,0,4,5,108,2,0,0,2,52.60,122.86334255665,1.81234859669,592.70187744545
A-426,tricalcium diphosphate,"InChI=1S/3Ca.2H3O4P/c;;;2*1-5(2,3)4/h;;;2*(H3,1,2,3,4)/q3*+2;;/p-6",QORWJWZARLRLPR-UHFFFAOYSA-H,[Ca++].[Ca++].[Ca++].[O-][P]([O-])([O-])=O.[O-][P]([O-])([O-])=O,-4.60511466560,0.03446267780,2,G3,310.17400,-6.79160,32.47500,13,8,0,13,0,64,0,0,0,0,172.50,163.59206791476,-0.00000002667,129.69862761618
A-427,2-(2-methylbutan-2-yl)cyclohexyl acetate,"InChI=1S/C13H24O2/c1-5-13(3,4)11-8-6-7-9-12(11)15-10(2)14/h11-12H,5-9H2,1-4H3",YEVACTAGDANHRH-UHFFFAOYSA-N,CCC(C)(C)C1CCCCC1OC(C)=O,-4.44620390360,0.00000000000,1,G1,212.33300,3.54450,61.58400,15,2,0,2,3,88,0,1,1,1,26.30,93.38779257661,2.68727188361,220.57584263291
A-429,2-cyclohexylidene-2-phenylacetonitrile,"InChI=1S/C14H15N/c15-11-14(12-7-3-1-4-8-12)13-9-5-2-6-10-13/h1,3-4,7-8H,2,5-6,9-10H2",ZHOOOLQOWQVYOE-UHFFFAOYSA-N,N#C[C](=[C]1CC[CH2]CC1)c2ccccc2,-4.42002399730,0.00000000000,1,G1,197.28100,3.92788,62.06000,15,1,0,1,1,76,1,1,1,2,23.79,91.04808553043,2.35133294946,387.09691894257
A-431,"2-{2-[(2,6-dichlorophenyl)amino]phenyl}acetic acid","InChI=1S/C14H11Cl2NO2/c15-10-5-3-6-11(16)14(10)17-12-7-2-1-4-9(12)8-13(18)19/h1-7,17H,8H2,(H,18,19)",DCOPUUMXTXDBNB-UHFFFAOYSA-N,OC(=O)Cc1ccccc1Nc2c(Cl)cccc2Cl,-4.62025778760,0.67637510809,5,G4,296.15300,4.36410,77.52650,19,2,2,5,4,98,2,0,0,2,49.33,120.33053204397,2.35588794423,593.89500144430
A-432,"1,1'-ethane-1,2-diylbis(4-nitrobenzene)","InChI=1S/C14H12N2O4/c17-15(18)13-7-3-11(4-8-13)1-2-12-5-9-14(10-6-12)16(19)20/h3-10H,1-2H2",BSNKHEKTRWNNAC-UHFFFAOYSA-N,[O-][N+](=O)c1ccc(CCc2ccc(cc2)[N+]([O-])=O)cc1,-4.58988580020,0.00000000000,1,G1,272.26000,3.28820,73.60080,20,4,0,6,5,102,2,0,0,2,86.28,114.52433299935,1.97388671621,563.12709254670
A-433,"4-(2,4,4-trimethylpentan-2-yl)phenol","InChI=1S/C14H22O/c1-13(2,3)10-14(4,5)11-6-8-12(15)9-7-11/h6-9,15H,10H2,1-5H3",ISAVYTVYFVQUDY-UHFFFAOYSA-N,CC(C)(C)CC(C)(C)c1ccc(O)cc1,-4.46946223330,0.00000000000,1,G1,206.32900,4.10600,65.20480,15,1,1,1,2,84,1,0,0,1,20.23,93.14517378687,2.90426441266,314.18709142486
A-434,4-nonylphenol,"InChI=1S/C15H24O/c1-2-3-4-5-6-7-8-9-14-10-12-15(16)13-11-14/h10-13,16H,2-9H2,1H3",IGFHQQFPSIBGKE-UHFFFAOYSA-N,CCCCCCCCCc1ccc(O)cc1,-4.49802684030,0.00000000000,1,G1,220.35600,4.68530,69.80380,16,1,1,1,8,90,1,0,0,1,20.23,99.51011590126,2.00563651146,263.26836983227
A-435,N-(4-carbamoylphenyl)-4-methoxy-3-nitrobenzamide,"InChI=1S/C15H13N3O5/c1-23-13-7-4-10(8-12(13)18(21)22)15(20)17-11-5-2-9(3-6-11)14(16)19/h2-8H,1H3,(H2,16,19)(H,17,20)",JXHSJUAPWJKPLE-UHFFFAOYSA-N,COc1ccc(cc1[N+]([O-])=O)C(=O)Nc2ccc(cc2)C(N)=O,-4.65360526920,0.00000000000,1,G1,315.28500,1.95460,82.56150,23,5,2,8,5,118,2,0,0,2,124.56,130.56264170147,2.21658758264,771.18185819724
A-436,dimethyl(octadecyl)amine,"InChI=1S/C20H43N.ClH/c1-4-5-6-7-8-9-10-11-12-13-14-15-16-17-18-19-20-21(2)3;/h4-20H2,1-3H3;1H",PFKRTWCFCOUBHS-UHFFFAOYSA-N,[Cl-].CCCCCCCCCCCCCCCCCC[NH+](C)C,-4.67869003390,0.00000000000,1,G1,334.03200,2.39640,97.22370,22,0,1,2,17,136,0,0,0,0,4.44,147.58607812412,0.00000000000,182.54605750777
A-441,tetrabutylazanium bromide,"InChI=1S/C16H36N.BrH/c1-5-9-13-17(14-10-6-2,15-11-7-3)16-12-8-4;/h5-16H2,1-4H3;1H/q+1;/p-1",JRMUNVKIHCOMHV-UHFFFAOYSA-M,[Br-].CCCC[N+](CCCC)(CCCC)CCCC,1.33202484420,0.00000000000,1,G1,322.37500,2.00760,79.36040,18,0,0,2,12,112,0,0,0,0,0.00,126.69589001302,0.00000000000,121.66617507356
A-444,cadmium dihydroxide,InChI=1S/Cd.2H2O/h;2*1H2/q+2;;/p-2,PLLZRTNVEXYBNA-UHFFFAOYSA-L,[OH-].[OH-].[Cd++],-3.32363339410,0.00000000000,1,G1,146.42600,-0.35610,3.87160,3,2,0,3,0,16,0,0,0,0,60.00,38.61253619029,0.00000000000,2.75488750216
A-445,"(2R)-6-fluoro-2-[(2R)-oxiran-2-yl]-3,4-dihydro-2H-1-benzopyran; (2R)-6-fluoro-2-[(2S)-oxiran-2-yl]-3,4-dihydro-2H-1-benzopyran; (2S)-6-fluoro-2-[(2R)-oxiran-2-yl]-3,4-dihydro-2H-1-benzopyran; (2S)-6-fluoro-2-[(2S)-oxiran-2-yl]-3,4-dihydro-2H-1-benzopyran","InChI=1S/4C11H11FO2/c4*12-8-2-4-9-7(5-8)1-3-10(14-9)11-6-13-11/h4*2,4-5,10-11H,1,3,6H2/t2*10-,11+;2*10-,11-/m1010/s1",KCFGCDSNSLCBLY-IOLMCIFPSA-N,Fc1ccc2O[C@@H](CCc2c1)[C@@H]3CO3.Fc4ccc5O[C@@H](CCc5c4)[C@H]6CO6.Fc7ccc8O[C@H](CCc8c7)[C@@H]9CO9.Fc%10ccc%11O[C@H](CCc%11c%10)[C@H]%12CO%12,-3.05210117650,0.00000000000,1,G1,776.82000,7.67240,195.50800,56,8,0,12,4,296,4,4,8,12,87.04,322.44287570573,0.00000009752,1727.22082412346
A-447,"(2E)-3,7-dimethylocta-2,6-dien-1-ol","InChI=1S/C10H18O/c1-9(2)5-4-6-10(3)7-8-11/h5,7,11H,4,6,8H2,1-3H3/b10-7+",GLZPCOQZEFWAFX-JXMROGBWSA-N,CC(C)=CCC\C(C)=C\CO,-2.35190950350,0.41816205785,2,G3,154.25300,2.67140,49.50780,11,1,1,1,4,64,0,0,0,0,20.23,69.43875774523,3.54438743137,150.25571236699
A-451,"1,2-dimethoxybenzene","InChI=1S/C8H10O2/c1-9-7-5-3-4-6-8(7)10-2/h3-6H,1-2H3",ABDKAPXRBAPSQN-UHFFFAOYSA-N,COc1ccccc1OC,-1.31497506690,0.00000000000,1,G1,138.16600,1.70380,39.54600,10,2,0,2,2,54,1,0,0,1,18.46,60.38837780730,2.96400009392,185.16749419417
A-452,"2-(4,5-diamino-1H-pyrazol-1-yl)ethan-1-ol; sulfuric acid","InChI=1S/C5H10N4O.H2O4S/c6-4-3-8-9(1-2-10)5(4)7;1-5(2,3)4/h3,10H,1-2,6-7H2;(H2,1,2,3,4)",IBCDZZHMNXXYAP-UHFFFAOYSA-N,Nc1cnn(CCO)c1N.O[S](O)(=O)=O,0.44425934440,0.00000000000,1,G1,240.24100,-1.61300,52.31500,15,7,5,10,2,88,1,0,0,1,164.69,85.88024074330,0.00000033600,391.55492929616
A-453,"disodium benzene-1,3-disulfonate","InChI=1S/C6H6O6S2.2Na/c7-13(8,9)5-2-1-3-6(4-5)14(10,11)12;;/h1-4H,(H,7,8,9)(H,10,11,12);;/q;2*+1/p-2",XWPWZOJBTOJEGW-UHFFFAOYSA-L,[Na+].[Na+].[O-][S](=O)(=O)c1cccc(c1)[S]([O-])(=O)=O,0.37094728530,0.00000000000,1,G1,282.20600,-6.49720,42.36840,16,6,0,10,2,78,1,0,0,1,114.40,137.51547438500,0.00000000000,502.88642194211
A-454,tris(2-butoxyethyl) phosphate,"InChI=1S/C18H39O7P/c1-4-7-10-20-13-16-23-26(19,24-17-14-21-11-8-5-2)25-18-15-22-12-9-6-3/h4-18H2,1-3H3",WTLBZVNBAKMVDP-UHFFFAOYSA-N,CCCCOCCO[P](=O)(OCCOCCCC)OCCOCCCC,-2.77856233190,0.10978116595,2,G3,398.47700,4.59440,102.64350,26,7,0,8,21,158,0,0,0,0,72.45,159.17414902409,4.04487352864,281.11259441366
A-457,1-methoxyhexane,"InChI=1S/C7H16O/c1-3-4-5-6-7-8-2/h3-7H2,1-2H3",ICBJCVRQDSQPGI-UHFFFAOYSA-N,CCCCCCOC,-2.24508532580,0.00000000000,1,G1,116.20400,2.21310,36.01800,8,1,0,1,5,50,0,0,0,0,9.23,52.04244894372,2.53006045688,29.36806555425
A-458,1-chloro-2-nitro-4-(trifluoromethyl)benzene,"InChI=1S/C7H3ClF3NO2/c8-5-2-1-4(7(9,10)11)3-6(5)12(13)14/h1-3H",TZGFQIXRVUHDLE-UHFFFAOYSA-N,[O-][N+](=O)c1cc(ccc1Cl)C(F)(F)F,-2.53370467230,0.00000000000,1,G1,225.55300,3.26700,43.10840,14,2,0,7,1,76,1,0,0,1,43.14,81.24919339205,3.26788641470,377.68792364080