ID,Name,InChI,InChIKey,SMILES,Solubility,SD,Ocurrences,Group,MolWt,MolLogP,MolMR,HeavyAtomCount,NumHAcceptors,NumHDonors,NumHeteroatoms,NumRotatableBonds,NumValenceElectrons,NumAromaticRings,NumSaturatedRings,NumAliphaticRings,RingCount,TPSA,LabuteASA,BalabanJ,BertzCT
A-3099,(2E)-but-2-enoic acid,"InChI=1S/C4H6O2/c1-2-3-4(5)6/h2-3H,1H3,(H,5,6)/b3-2+",LDHQCZJRKDOVOX-NSCUHMNNSA-N,C/C=C/C(O)=O,0.03817514580,0.01933757290,2,G3,86.09000,0.64710,22.44980,6,1,1,2,1,34,0,0,0,0,37.30,36.10023019107,3.30162787199,73.61727061435
A-3100,barium dinitrate,InChI=1S/Ba.2NO3/c;2*2-1(3)4/q+2;2*-1,IWOUKMZUPDVPGQ-UHFFFAOYSA-N,[Ba++].[O-][N+]([O-])=O.[O-][N+]([O-])=O,-0.44407138590,0.00000000000,1,G1,261.33600,-0.85900,26.47680,9,6,0,9,0,48,0,0,0,0,132.40,88.75877657363,-0.00000007200,69.05865002596
A-3102,"bis(5-oxo-L-prolinato-N1,O2)zinc","InChI=1S/2C5H7NO3.Zn/c2*7-4-2-1-3(6-4)5(8)9;/h2*3H,1-2H2,(H,6,7)(H,8,9);/q;;+2/p-2",OWVLYQRCCIEOPF-UHFFFAOYSA-L,[Zn++].[O-]C(=O)C1CCC(=O)N1.[O-]C(=O)C2CCC(=O)N2,-0.53419358810,0.00000000000,1,G1,321.60400,-3.97270,52.34340,19,6,2,9,2,100,0,2,2,2,138.46,121.23550721822,0.00000032400,350.21616690607
A-3104,calcium bis(dihydrogenorthophosphate),"InChI=1S/Ca.2H3O4P/c;2*1-5(2,3)4/h;2*(H3,1,2,3,4)/q+2;;/p-2",YYRMJZQKEFZXMX-UHFFFAOYSA-L,[Ca++].O[P](O)([O-])=O.O[P](O)([O-])=O,-0.39664305320,0.00000000000,1,G1,234.05000,-3.50200,29.84220,11,4,4,11,0,64,0,0,0,0,161.18,91.36053192431,-0.00000010667,124.40154658752
A-3115,potassium (dimethylamino)acetate,"InChI=1S/C4H9NO2.K/c1-5(2)3-4(6)7;/h3H2,1-2H3,(H,6,7);/q;+1/p-1",WHXRLGMKAWGISQ-UHFFFAOYSA-M,[K+].CN(C)CC([O-])=O,0.80917286380,0.00000000000,1,G1,141.21100,-4.69810,23.56100,8,3,0,4,2,42,0,0,0,0,43.37,91.47223158883,0.00000000000,74.43856189775
A-3117,dipotassium carbonate,"InChI=1S/CH2O3.K/c2-1(3)4;/h(H2,2,3,4);/q;+1/p-1",TYJJADVDDVDEDZ-UHFFFAOYSA-M,[K+].OC([O-])=O,0.95374769570,0.05037667605,2,G3,100.11400,-4.10830,8.02480,5,2,1,4,0,24,0,0,0,0,60.36,71.41180532763,0.00000000000,29.87430298093
A-3118,3-methylbut-3-en-1-ol,"InChI=1S/C5H10O/c1-5(2)3-4-6/h6H,1,3-4H2,2H3",CPJRRXSHAYUTGL-UHFFFAOYSA-N,CC(=C)CCO,0.01906789340,0.00000000000,1,G1,86.13400,0.94490,26.51680,6,1,1,1,2,36,0,0,0,0,20.23,38.30365020543,2.83125710993,47.90013452989
A-3120,"sodium 3-(2H-1,2,3-benzotriazol-2-yl)-5-(butan-2-yl)-4-hydroxybenzene-1-sulfonate","InChI=1S/C16H17N3O4S.Na/c1-3-10(2)12-8-11(24(21,22)23)9-15(16(12)20)19-17-13-6-4-5-7-14(13)18-19;/h4-10,20H,3H2,1-2H3,(H,21,22,23);/q;+1/p-1",XTXADMXOEMEPAC-UHFFFAOYSA-M,[Na+].CCC(C)c1cc(cc(n2nc3ccccc3n2)c1O)[S]([O-])(=O)=O,-1.57624494980,0.00000000000,1,G1,369.37800,-0.45230,87.19900,25,7,1,9,4,126,3,0,0,3,108.14,167.26153470614,0.00000225333,984.39177674200
A-3123,4-methylaniline,"InChI=1S/C7H9N/c1-6-2-4-7(8)5-3-6/h2-5H,8H2,1H3",RZXMPPFPUUCRFN-UHFFFAOYSA-N,Cc1ccc(N)cc1,-1.04774526050,0.42620530189,4,G5,107.15600,1.57722,35.59140,8,1,1,1,0,42,1,0,0,1,26.02,49.13623593091,3.03245553203,143.24662946460
A-3125,disodium 6-amino-5-[(E)-2-[4-(2-bromoprop-2-enamido)-2-(4-methyl-3-sulfonatobenzenesulfonyl)phenyl]diazen-1-yl]naphthalene-2-sulfonate,"InChI=1S/C26H21BrN4O9S3.2Na/c1-14-3-6-18(13-23(14)43(38,39)40)41(33,34)24-12-17(29-26(32)15(2)27)5-10-22(24)30-31-25-20-8-7-19(42(35,36)37)11-16(20)4-9-21(25)28;;/h3-13H,2,28H2,1H3,(H,29,32)(H,35,36,37)(H,38,39,40);;/q;2*+1/p-2",QTUYUTJUQCCNBJ-UHFFFAOYSA-L,[Na+].[Na+].Cc1ccc(cc1[S]([O-])(=O)=O)[S](=O)(=O)c2cc(NC(=O)C(Br)=C)ccc2N=Nc3c(N)ccc4cc(ccc34)[S]([O-])(=O)=O,-1.89483623050,0.00000000000,1,G1,753.54200,-1.35808,158.23230,45,12,2,19,8,224,4,0,0,4,228.38,311.07249156685,0.00000352666,2212.30323011710
A-3128,2-ethoxyphenol,"InChI=1S/C8H10O2/c1-2-10-8-6-4-3-5-7(8)9/h3-6,9H,2H2,1H3",MOEFFSWKSMRFRQ-UHFFFAOYSA-N,CCOc1ccccc1O,-1.17145150370,0.00000000000,1,G1,138.16600,1.79090,39.27580,10,2,1,2,2,54,1,0,0,1,29.46,60.06906632999,2.81118091719,208.16749419417
A-3129,"(5-ethyl-1,3-dioxan-5-yl)methyl prop-2-enoate","InChI=1S/C10H16O4/c1-3-9(11)14-7-10(4-2)5-12-8-13-6-10/h3H,1,4-8H2,2H3",STGXUBIZGYMIRM-UHFFFAOYSA-N,CCC1(COCOC1)COC(=O)C=C,-1.33305487460,0.00000000000,1,G1,200.23400,1.11630,50.65100,14,4,0,4,4,80,0,1,1,1,44.76,83.83045366025,2.43129282411,206.16753793856
A-3132,4-hydroxy-3-methoxybenzaldehyde,"InChI=1S/C8H8O3/c1-11-8-4-6(5-9)2-3-7(8)10/h2-5,10H,1H3",MWOOGOJBHIARFG-UHFFFAOYSA-N,COc1cc(C=O)ccc1O,-1.22802659290,0.04356329645,2,G3,152.14900,1.21330,40.04630,11,3,1,3,2,58,1,0,0,1,46.53,64.23058843004,3.11616413386,268.03972257956
A-3133,dibromomethane,InChI=1S/CH2Br2/c2-1-3/h1H2,FJBFPHVGVWTDIP-UHFFFAOYSA-N,BrCBr,-1.28589471250,0.06064735625,2,G3,173.83500,1.73370,22.72100,3,0,0,2,0,20,0,0,0,0,0.00,36.47434623911,1.63299316186,2.75488750216
A-3134,disodium selenite,"InChI=1S/2Na.H2O3Se/c;;1-4(2)3/h;;(H2,1,2,3)/q2*+1;/p-2",BVTBRVFYZUCAKH-UHFFFAOYSA-L,[Na+].[Na+].[O-][Se]([O-])=O,0.71538841580,0.00000000000,1,G1,172.93700,-8.86960,6.44050,6,3,0,6,0,26,0,0,0,0,63.19,84.44067163270,-0.00000004500,31.77443751082
A-3135,sodium 1-benzylpyridin-1-ium-3-carboxylate chloride,"InChI=1S/C13H11NO2.ClH.Na/c15-13(16)12-7-4-8-14(10-12)9-11-5-2-1-3-6-11;;/h1-8,10H,9H2;1H;/q;;+1/p-1",ONCDUCAWXQKSDE-UHFFFAOYSA-M,[Na+].[Cl-].[O-]C(=O)c1ccc[n+](Cc2ccccc2)c1,0.51922026670,0.00000000000,1,G1,271.67900,-5.60610,56.51150,18,2,0,5,3,88,2,0,0,2,44.01,134.17024974940,0.00000144500,505.35424768289
A-3137,2-methylbut-3-yn-2-amine,"InChI=1S/C5H9N/c1-4-5(2,3)6/h1H,6H2,2-3H3",VUGCBIWQHSRQBZ-UHFFFAOYSA-N,CC(C)(N)C#C,1.03165598840,0.00000000000,1,G1,83.13400,0.35690,27.09940,6,1,1,1,0,34,0,0,0,0,26.02,38.53813557429,3.55273435452,70.91968453854
A-3139,sodium vanadiumoylolate,InChI=1S/Na.3O.V/q+1;;;-1;,CMZUMMUJMWNLFH-UHFFFAOYSA-N,[Na+].[O-][V](=O)=O,0.26646137420,0.00000000000,1,G1,121.92900,-4.42510,1.37300,5,3,0,5,0,24,0,0,0,0,57.20,56.02849212821,0.00000000000,55.29331487002
A-3140,"disodium 2-[(5-carbamoyl-1-ethyl-2-hydroxy-4-methyl-6-oxo-1,6-dihydropyridin-3-yl)diazenyl]-4-({4-[(2-chloro-5-sulfonatophenyl)amino]-6-fluoro-1,3,5-triazin-2-yl}amino)benzenesulfonate","InChI=1S/C24H21ClFN9O9S2.2Na/c1-3-35-20(37)17(19(27)36)10(2)18(21(35)38)34-33-15-8-11(4-7-16(15)46(42,43)44)28-23-30-22(26)31-24(32-23)29-14-9-12(45(39,40)41)5-6-13(14)25;;/h4-9,33H,3H2,1-2H3,(H2,27,36)(H,39,40,41)(H,42,43,44)(H2,28,29,30,31,32);;/q;2*+1/p-2/b34-18-;;",GBJBDVLMURYXQR-RJZFESICSA-L,[Na+].[Na+].CCN1C(=O)C(=N/Nc2cc(Nc3nc(F)nc(Nc4cc(ccc4Cl)[S]([O-])(=O)=O)n3)ccc2[S]([O-])(=O)=O)\C(=C(C(N)=O)C1=O)C,-0.92103438370,0.00000000000,1,G1,742.03500,-5.07410,155.51690,48,16,4,24,10,242,3,0,1,4,281.99,320.44578893790,0.00000400166,2103.68088236648
A-3144,1-[(2-hydroxypropyl)amino]propan-2-ol,"InChI=1S/C6H15NO2/c1-5(8)3-7-4-6(2)9/h5-9H,3-4H2,1-2H3",LVTYICIALWPMFW-UHFFFAOYSA-N,CC(O)CNCC(C)O,0.81504437300,0.17508503470,3,G5,133.19100,-0.66240,36.23130,9,3,3,3,4,56,0,0,0,0,52.49,55.70229128781,2.91465862551,56.07820003462
A-3146,Methenamine,InChI=1S/C6H12N4/c1-7-2-9-4-8(1)5-10(3-7)6-9/h1-6H2,VKYKSIONXSXAKP-UHFFFAOYSA-N,C1N2CN3CN1CN(C2)C3,0.79240268190,0.00000000000,1,G1,140.19000,-1.01980,36.55800,10,4,0,4,0,56,0,4,4,4,12.96,60.58580282004,1.89736659610,101.29748098349
A-3148,lanthanum(3+) ion trichloride,InChI=1S/3ClH.La.7H2O/h3*1H;;7*1H2/q;;;+3;;;;;;;/p-3,FDFPDGIMPRFRJP-UHFFFAOYSA-K,O.O.O.O.O.O.O.[Cl-].[Cl-].[Cl-].[La+3],0.36522659720,0.00000000000,1,G1,371.37000,-14.76090,25.29660,11,0,0,11,0,80,0,0,0,0,220.50,110.29673508076,0.00000000000,13.64737584844
A-3149,2-ethyloxirane,"InChI=1S/C4H8O/c1-2-4-3-5-4/h4H,2-3H2,1H3",RBACIKXCRWGCBB-UHFFFAOYSA-N,CCC1CO1,0.08054229800,0.08989625099,3,G5,72.10700,0.79520,20.03100,5,1,0,1,1,30,0,1,1,1,12.53,31.94179144700,1.99893948518,30.62919048309
A-3150,aluminium(3+) ion triformate,"InChI=1S/3CH2O2.Al/c3*2-1-3;/h3*1H,(H,2,3);/q;;;+3/p-3",MJWPFSQVORELDX-UHFFFAOYSA-K,[Al+3].[O-]C=O.[O-]C=O.[O-]C=O,-0.27460032150,0.03975869365,2,G3,162.03300,-5.28250,23.94600,10,6,0,7,0,54,0,0,0,0,120.39,67.22157811239,-0.00000002571,49.74860596185
A-3151,cyclohexanone,InChI=1S/C6H10O/c7-6-4-2-1-3-5-6/h1-5H2,JHIVVAPYMSGYDF-UHFFFAOYSA-N,O=C1CCCCC1,-0.05736972810,0.25774972179,3,G5,98.14500,1.51960,28.09200,7,1,0,1,0,40,0,1,1,1,17.07,43.71965254633,2.24954409473,68.24920506010
A-3153,diammonium [(sulfonoperoxoato sulfato)oxy]sulfonoperoxoate,"InChI=1S/2H3N.H2O8S2/c;;1-9(2,3)7-8-10(4,5)6/h2*1H3;(H,1,2,3)(H,4,5,6)",ROOXNKNUYICQNP-UHFFFAOYSA-N,[NH4+].[NH4+].[O-][S](=O)(=O)OO[S]([O-])(=O)=O,0.57109567320,0.00000000000,1,G1,228.20400,-1.39260,33.53400,12,8,2,12,3,78,0,0,0,0,205.86,68.47747518828,-0.00000040500,251.01955000865
A-3159,(3-chloro-2-hydroxypropyl)trimethylazanium chloride,"InChI=1S/C6H15ClNO.ClH/c1-8(2,3)5-6(9)4-7;/h6,9H,4-5H2,1-3H3;1H/q+1;/p-1",CSPHGSFZFWKVDL-UHFFFAOYSA-M,[Cl-].C[N+](C)(C)CC(O)CCl,0.64740630780,0.00000000000,1,G1,188.09800,-2.70370,39.62620,10,1,1,4,3,64,0,0,0,0,20.23,73.78435998824,0.00000000000,82.30722655024
A-3162,"2,2-dimethylpropane-1,3-diol","InChI=1S/C5H12O2/c1-5(2,3-6)4-7/h6-7H,3-4H2,1-2H3",SLCVBVWXLSEKPL-UHFFFAOYSA-N,CC(C)(CO)CO,0.90142298800,0.00000000000,1,G1,104.14900,-0.00280,27.95260,7,2,2,2,2,44,0,0,0,0,40.46,43.78748698981,3.36043514270,44.04184397997
A-3163,ethyl acetate,"InChI=1S/C4H8O2/c1-3-6-4(2)5/h3H2,1-2H3",XEKOWRVHYACXOJ-UHFFFAOYSA-N,CCOC(C)=O,-0.02540446100,0.01679980382,3,G5,88.10600,0.56940,22.30700,6,2,0,2,1,36,0,0,0,0,26.30,37.10914470057,2.83125710993,49.50977500433
A-3164,"(1Z,5Z)-cycloocta-1,5-diene; rhodium; dichloride","InChI=1S/2C8H12.2Cl.2Rh/c2*1-2-4-6-8-7-5-3-1;;;;/h2*1-2,7-8H,3-6H2;;;;/b2*2-1-,8-7-;;;;",LGARIVPRHUAOKP-MIXQCLKLSA-N,[Cl].[Cl].[Rh].[Rh].C\1C\C=C/CC\C=C1.C\2C\C=C/CC\C=C2,-2.49979807360,0.00000000000,1,G1,493.08600,6.71960,85.20200,20,0,0,4,0,120,0,0,2,2,0.00,162.52198205174,-0.00000010667,191.65043753297
A-3165,"potassium hydrogen benzene-1,2-dicarboxylate","InChI=1S/C8H6O4.K/c9-7(10)5-3-1-2-4-6(5)8(11)12;/h1-4H,(H,9,10)(H,11,12);/q;+1/p-1",IWZKICVEHNUQTL-UHFFFAOYSA-M,[K+].OC(=O)c1ccccc1C([O-])=O,-0.39102443270,0.54046095385,2,G2,204.22200,-3.24770,37.73180,13,3,1,5,2,62,1,0,0,1,77.43,116.99536374813,0.00000144000,301.67084098634
A-3166,hexasodium; dioxido-dioxotungsten; trioxotungsten,InChI=1S/6Na.39O.12W/q6*+1;;;;;;;;;;;;;;;;;;;;;;;;;;;;;;;;;;6*-1;;;;;;;;;;;;,AZCSOJKJFMWYCX-UHFFFAOYSA-N,[Na+].[Na+].[Na+].[Na+].[Na+].[Na+].[O-][W]([O-])(=O)=O.[O-][W]([O-])(=O)=O.[O-][W]([O-])(=O)=O.O=[W](=O)=O.O=[W](=O)=O.O=[W](=O)=O.O=[W](=O)=O.O=[W](=O)=O.O=[W](=O)=O.O=[W](=O)=O.O=[W](=O)=O.O=[W](=O)=O,-0.47246111640,0.00000000000,1,G1,2967.98100,-29.06040,22.65450,57,39,0,57,0,312,0,0,0,0,701.67,503.63021997827,-0.00000001804,1733.64870861294
A-3168,sodium 2-chloroacetate,"InChI=1S/C2H3ClO2.Na/c3-1-2(4)5;/h1H2,(H,4,5);/q;+1/p-1",FDRCDNZGSXJAFP-UHFFFAOYSA-M,[Na+].[O-]C(=O)CCl,0.84862418410,0.00727355410,2,G3,116.47900,-4.02090,15.72700,6,2,0,4,1,30,0,0,0,0,40.13,62.77661484406,0.00000000000,46.81274391313
A-3169,azepan-2-one,"InChI=1S/C6H11NO/c8-6-4-2-1-3-5-7-6/h1-5H2,(H,7,8)",JBKVHLHDHHXQEQ-UHFFFAOYSA-N,O=C1CCCCCN1,0.86012091360,0.02057150342,3,G5,113.16000,0.67660,31.47770,8,1,1,2,0,46,0,1,1,1,29.10,49.26951472994,2.26669651519,80.52932501298
A-3171,sodium nitrite,"InChI=1S/HNO2.Na/c2-1-3;/h(H,2,3);/q;+1/p-1",LPXPTNMVRIOKMN-UHFFFAOYSA-M,[Na+].[O-]N=O,1.07499623340,0.04640693104,3,G5,68.99500,-2.74540,9.16200,4,3,0,4,0,18,0,0,0,0,52.49,45.23071277205,0.00000000000,13.50977500433
A-3172,sodium 4-methylbenzene-1-sulfonate,"InChI=1S/C7H8O3S.Na/c1-6-2-4-7(5-3-6)11(8,9)10;/h2-5H,1H3,(H,8,9,10);/q;+1/p-1",KVCGISUBCHHTDD-UHFFFAOYSA-M,[Na+].Cc1ccc(cc1)[S]([O-])(=O)=O,0.62453315130,0.00000000000,1,G1,194.18700,-2.09688,39.14220,12,3,0,5,1,60,1,0,0,1,57.20,93.83838086665,0.00000121000,341.41916724714
A-3173,"1-N-(2-hydroxyethyl)-4-methoxybenzene-1,3-bis(aminium) sulfate","InChI=1S/C9H14N2O2.H2O4S/c1-13-9-3-2-7(6-8(9)10)11-4-5-12;1-5(2,3)4/h2-3,6,11-12H,4-5,10H2,1H3;(H2,1,2,3,4)",GWHLYFOWAINYAH-UHFFFAOYSA-N,COc1ccc([NH2+]CCO)cc1[NH3+].[O-][S]([O-])(=O)=O,-0.53434229480,0.00000000000,1,G1,280.30200,-2.58220,59.55490,18,6,3,9,4,104,1,0,0,1,153.97,104.96146611683,0.00000049431,454.12570664140
A-3174,bis(prop-2-en-1-yl)amine,"InChI=1S/C6H11N/c1-3-5-7-6-4-2/h3-4,7H,1-2,5-6H2",DYUWTXWIYMHBQS-UHFFFAOYSA-N,C=CCNCC=C,-0.07900695710,0.01300347855,2,G3,97.16100,0.94800,33.26370,7,1,1,1,4,40,0,0,0,0,12.03,44.73461771905,2.67954920655,49.20035947604
A-3175,dimethyl {3-[(hydroxymethyl)amino]-3-oxopropyl}phosphonate,"InChI=1S/C6H14NO5P/c1-11-13(10,12-2)4-3-6(9)7-5-8/h8H,3-5H2,1-2H3,(H,7,9)",MCONGYNHPPCHSD-UHFFFAOYSA-N,CO[P](=O)(CCC(=O)NCO)OC,1.57849067410,0.00000000000,1,G1,211.15400,-0.07160,46.33700,13,5,2,7,6,78,0,0,0,0,84.86,76.75961051102,3.85745365115,199.20129207711
A-3179,"2,2'-ethene-1,2-diylbis[5-({4-anilino-6-[bis(2-hydroxyethyl)amino]-1,3,5-triazin-2-yl}amino)benzenesulfonic acid]","InChI=1S/C40H44N12O10S2/c53-21-17-51(18-22-54)39-47-35(41-29-7-3-1-4-8-29)45-37(49-39)43-31-15-13-27(33(25-31)63(57,58)59)11-12-28-14-16-32(26-34(28)64(60,61)62)44-38-46-36(42-30-9-5-2-6-10-30)48-40(50-38)52(19-23-55)20-24-56/h1-16,25-26,53-56H,17-24H2,(H,57,58,59)(H,60,61,62)(H2,41,43,45,47,49)(H2,42,44,46,48,50)/b12-11+",CNGYZEMWVAWWOB-VAWYXSNFSA-N,OCCN(CCO)c1nc(Nc2ccccc2)nc(Nc3ccc(\C=C\c4ccc(Nc5nc(Nc6ccccc6)nc(n5)N(CCO)CCO)cc4[S](O)(=O)=O)c(c3)[S](O)(=O)=O)n1,-1.05927934870,0.00000000000,1,G1,917.00000,3.27680,239.87920,64,20,10,24,22,336,6,0,0,6,321.60,367.14790325098,1.30576859552,2575.18918180697
A-3180,hexanedinitrile,InChI=1S/C6H8N2/c7-5-3-1-2-4-6-8/h1-4H2,BTGRAWJCKBQKAO-UHFFFAOYSA-N,N#CCCCCC#N,-0.13091244210,0.00000000000,1,G1,108.14400,1.59396,29.69400,8,2,0,2,3,42,0,0,0,0,47.58,49.34912096275,2.77390116329,99.47067498702
A-3181,3-oxo-N-phenylbutanamide,"InChI=1S/C10H11NO2/c1-8(12)7-10(13)11-9-5-3-2-4-6-9/h2-6H,7H2,1H3,(H,11,13)",DYRDKSSFIWVSNM-UHFFFAOYSA-N,CC(=O)CC(=O)Nc1ccccc1,-1.29908106350,0.00000000000,1,G1,177.20300,1.60420,50.36970,13,2,1,3,3,68,1,0,0,1,46.17,76.76407796078,2.50445498685,305.96060133941
A-3184,"1,3,3-trimethyl-2-[(1E)-[2-methyl-2-(4-methylphenyl)hydrazin-1-ylidene]methyl]-3H-indol-1-ium methyl sulfate","InChI=1S/C20H24N3.CH4O4S/c1-15-10-12-16(13-11-15)23(5)21-14-19-20(2,3)17-8-6-7-9-18(17)22(19)4;1-5-6(2,3)4/h6-14H,1-5H3;1H3,(H,2,3,4)/q+1;/p-1",WYYPHFSXWSKRQJ-UHFFFAOYSA-M,CO[S]([O-])(=O)=O.CN(N=CC1=[N+](C)c2ccccc2C1(C)C)c3ccc(C)cc3,-1.67620605350,0.00000000000,1,G1,417.53100,3.21622,115.09960,29,6,0,8,4,156,2,0,1,3,85.04,172.45474761949,0.00000043841,1026.14666390903
A-3185,"2-[(1E)-[2-(4-methoxyphenyl)-2-methylhydrazin-1-ylidene]methyl]-1,3,3-trimethyl-3H-indol-1-ium methyl sulfate","InChI=1S/C20H24N3O.CH4O4S/c1-20(2)17-8-6-7-9-18(17)22(3)19(20)14-21-23(4)15-10-12-16(24-5)13-11-15;1-5-6(2,3)4/h6-14H,1-5H3;1H3,(H,2,3,4)/q+1;/p-1",SPWPAFQLIZTXFN-UHFFFAOYSA-M,COc1ccc(cc1)N(C)N=CC2=[N+](C)c3ccccc3C2(C)C.CO[S]([O-])(=O)=O,-1.69253648360,0.00000000000,1,G1,433.53000,2.91640,116.91460,30,7,0,9,5,162,2,0,1,3,94.27,177.56829284900,0.00000046931,1044.56644775794
A-3186,"2-butyl-2-ethylpropane-1,3-diol","InChI=1S/C9H20O2/c1-3-5-6-9(4-2,7-10)8-11/h10-11H,3-8H2,1-2H3",DSKYSDCYIODJPC-UHFFFAOYSA-N,CCCCC(CC)(CO)CO,-1.26033433640,0.00000000000,1,G1,160.25700,1.55760,46.42060,11,2,2,2,6,68,0,0,0,0,40.46,69.24725544739,3.83525715765,79.29886030285
A-3190,iodomethane,InChI=1S/CH3I/c1-2/h1H3,INQOMBQAUSQDDS-UHFFFAOYSA-N,CI,-1.21458384920,0.10274845415,2,G3,141.93900,1.05120,19.94400,2,0,0,1,0,14,0,0,0,0,0.00,28.00108914887,1.00000000000,2.00000000000
A-3193,(2E)-2-methylpent-2-enal,"InChI=1S/C6H10O/c1-3-4-6(2)5-7/h4-5H,3H2,1-2H3/b6-4+",IDEYZABHVQLHAF-GQCTYLIASA-N,CC\C=C(/C)C=O,-1.05736972810,0.00000000000,1,G1,98.14500,1.54160,30.11200,7,1,0,1,2,40,0,0,0,0,17.07,44.03588066767,3.49036188360,82.18080946738
A-3195,Pyromellitic dianhydride,InChI=1S/C10H2O6/c11-7-3-1-4-6(10(14)16-8(4)12)2-5(3)9(13)15-7/h1-2H,ANSXAPJVJOKRDJ-UHFFFAOYSA-N,O=C1OC(=O)c2cc3C(=O)OC(=O)c3cc12,-1.40622172430,0.00674346945,2,G3,218.12000,-0.50460,53.43800,16,6,0,6,0,78,3,0,0,3,94.56,85.02947911130,2.79863957017,769.65211538076
A-3196,butyl 4-oxopentanoate,"InChI=1S/C9H16O3/c1-3-4-7-12-9(11)6-5-8(2)10/h3-7H2,1-2H3",ISBWNEKJSSLXOD-UHFFFAOYSA-N,CCCCOC(=O)CCC(C)=O,-1.30667474600,0.00000000000,1,G1,172.22400,1.69890,45.78200,12,3,0,3,6,70,0,0,0,0,43.37,73.09537737260,3.27655331553,151.85263754543
A-3197,"5-methyl-octahydro-2-benzofuran-1,3-dione","InChI=1S/C9H12O3/c1-5-2-3-6-7(4-5)9(11)12-8(6)10/h5-7H,2-4H2,1H3",FKBMTBAXDISZGN-UHFFFAOYSA-N,CC1CCC2C(C1)C(=O)OC2=O,-1.30152604880,0.02672215960,2,G3,168.19200,1.12220,41.09400,12,3,0,3,0,66,0,2,2,2,43.37,71.08371506554,2.16933536643,233.92814698225
A-3199,calcium bis(2-ethylhexanoate),"InChI=1S/2C8H16O2.Ca/c2*1-3-5-6-7(4-2)8(9)10;/h2*7H,3-6H2,1-2H3,(H,9,10);/q;;+2/p-2",LTPCXXMGKDQPAO-UHFFFAOYSA-L,[Ca++].CCCCC(CC)C([O-])=O.CCCCC(CC)C([O-])=O,-1.59171555870,0.49155086180,2,G3,326.49000,1.52460,82.38000,21,4,0,5,10,120,0,0,0,0,80.26,159.24649359701,-0.00000029455,230.66153122169
A-3201,"2,6-dimethylaniline","InChI=1S/C8H11N/c1-6-4-3-5-7(2)8(6)9/h3-5H,9H2,1-2H3",UFFBMTHBGFGIHF-UHFFFAOYSA-N,Cc1cccc(C)c1N,-1.16751448800,0.09900807030,2,G3,121.18300,1.88564,40.32840,9,1,1,1,0,48,1,0,0,1,26.02,55.50117804530,3.24783473374,195.55766205434
A-3202,"1,4-dimethyl cyclohexane-1,4-dicarboxylate","InChI=1S/C10H16O4/c1-13-9(11)7-3-5-8(6-4-7)10(12)14-2/h7-8H,3-6H2,1-2H3",LNGAGQAGYITKCW-UHFFFAOYSA-N,COC(=O)C1CCC(CC1)C(=O)OC,-1.38719466610,0.00000000000,1,G1,200.23400,1.13880,49.48000,14,4,0,4,2,80,0,1,1,1,52.60,83.56803356297,2.38076627942,192.16188799455
A-3204,"sodium 1,4-bis[(2-ethylhexyl)oxy]-1,4-dioxobutane-2-sulfonate","InChI=1S/C20H38O7S.Na/c1-5-9-11-16(7-3)14-26-19(21)13-18(28(23,24)25)20(22)27-15-17(8-4)12-10-6-2;/h16-18H,5-15H2,1-4H3,(H,23,24,25);/q;+1/p-1",APSBXTVYXVQYAB-UHFFFAOYSA-M,[Na+].CCCCC(CC)COC(=O)CC(C(=O)OCC(CC)CCCC)[S]([O-])(=O)=O,-1.73571418870,0.00000000000,1,G1,444.56600,0.81350,106.63220,29,7,0,9,16,166,0,0,0,0,109.80,198.26532149322,0.00000000000,551.03296722984
A-3205,4-aminobenzamide,"InChI=1S/C7H8N2O/c8-6-3-1-5(2-4-6)7(9)10/h1-4H,8H2,(H2,9,10)",QIKYZXDTTPVVAC-UHFFFAOYSA-N,NC(=O)c1ccc(N)cc1,-1.22554538590,0.00000000000,1,G1,136.15400,0.36770,39.37230,10,2,2,3,1,52,1,0,0,1,69.11,58.63764872796,3.00340068458,240.28794892648
A-3206,"1,3-dimethyl-3,7-dihydro-1H-purine-2,6-dione","InChI=1S/C7H8N4O2/c1-10-5-4(8-3-9-5)6(12)11(2)7(10)13/h3H,1-2H3,(H,8,9)",ZFXYFBGIUFBOJW-UHFFFAOYSA-N,CN1C(=O)N(C)c2nc[nH]c2C1=O,-1.35258526010,0.01692913360,2,G3,180.16700,-1.03970,46.57570,13,5,1,6,0,68,2,0,0,2,72.68,72.45404341716,3.21185381304,574.17055938226
A-3208,"2,2,4-trimethylhexanedinitrile; 2,4,4-trimethylhexanedinitrile","InChI=1S/2C9H14N2/c1-8(7-11)6-9(2,3)4-5-10;1-8(4-5-10)6-9(2,3)7-11/h2*8H,4,6H2,1-3H3",CMIRRYUUJFPVJI-UHFFFAOYSA-N,CC(CC#N)CC(C)(C)C#N.CC(CC(C)(C)CC#N)C#N,-1.57468222140,0.00000000000,1,G1,300.45000,4.95212,86.81000,22,4,0,4,6,120,0,0,0,0,95.16,135.51941685198,0.00000000000,477.17744552400
A-3209,benzyldimethylamine,"InChI=1S/C9H13N/c1-10(2)8-9-6-4-3-5-7-9/h3-7H,8H2,1-2H3",XXBDWLFCJWSEKW-UHFFFAOYSA-N,CN(C)Cc1ccccc1,-1.22791882580,0.08805941290,2,G3,135.21000,1.74820,43.83300,10,1,0,1,2,54,1,0,0,1,3.24,62.28606313289,2.58728718515,179.17957141668
A-3210,trichloromethane,InChI=1S/CHCl3/c2-1(3)4/h1H,HEDRZPFGACZZDS-UHFFFAOYSA-N,ClC(Cl)Cl,-1.17383431170,0.01821463285,2,G3,119.37800,1.98640,21.34700,4,0,0,3,0,26,0,0,0,0,0.00,39.64904970847,2.32379000772,8.00000000000
A-3211,ammonium bromide,InChI=1S/BrH.H3N/h1H;1H3,SWLVFNYSXGMGBS-UHFFFAOYSA-N,[NH4+].[Br-],1.90829978500,0.00000000000,1,G1,97.94300,-2.61980,5.98480,2,0,1,2,0,16,0,0,0,0,36.50,24.01693023630,0.00000000000,2.00000000000
A-3212,oxolan-2-ylmethyl prop-2-enoate,"InChI=1S/C8H12O3/c1-2-8(9)11-6-7-4-3-5-10-7/h2,7H,1,3-6H2",YNXCGLKMOXLBOD-UHFFFAOYSA-N,C=CC(=O)OCC1CCCO1,-0.29545171570,0.00000000000,1,G1,156.18100,0.89460,40.13000,11,3,0,3,3,62,0,1,1,1,35.53,65.98702420195,2.10383169249,147.41616035477