ID,Name,InChI,InChIKey,SMILES,Solubility,SD,Ocurrences,Group,MolWt,MolLogP,MolMR,HeavyAtomCount,NumHAcceptors,NumHDonors,NumHeteroatoms,NumRotatableBonds,NumValenceElectrons,NumAromaticRings,NumSaturatedRings,NumAliphaticRings,RingCount,TPSA,LabuteASA,BalabanJ,BertzCT
A-3819,1-methylpyridinium chloride,"InChI=1S/C6H8N.ClH/c1-7-5-3-2-4-6-7;/h2-6H,1H3;1H/q+1;/p-1",QAIGYXWRIHZZAA-UHFFFAOYSA-M,[Cl-].C[n+]1ccccc1,0.42018288910,0.00000000000,1,G1,129.59000,-2.48490,27.61800,8,0,0,2,0,44,1,0,0,1,3.88,55.37905795398,0.00000049000,138.45588524101
A-3820,"trisodium 7-{2-[2-(carbamoylamino)-4-{[4-({2-[2-(ethenesulfonyl)ethoxy]ethyl}amino)-6-fluoro-1,3,5-triazin-2-yl]amino}phenyl]diazen-1-yl}naphthalene-1,3,6-trisulfonate","InChI=1S/C26H26FN9O13S4.3Na/c1-2-50(38,39)8-7-49-6-5-29-25-32-23(27)33-26(34-25)30-15-3-4-18(19(11-15)31-24(28)37)35-36-20-13-17-14(10-22(20)53(46,47)48)9-16(51(40,41)42)12-21(17)52(43,44)45;;;/h2-4,9-13H,1,5-8H2,(H3,28,31,37)(H,40,41,42)(H,43,44,45)(H,46,47,48)(H2,29,30,32,33,34);;;/q;3*+1/p-3",BTCMRMVIDXSNEW-UHFFFAOYSA-K,[Na+].[Na+].[Na+].NC(=O)Nc1cc(Nc2nc(F)nc(NCCOCC[S](=O)(=O)C=C)n2)ccc1N=Nc3cc4c(cc(cc4[S]([O-])(=O)=O)[S]([O-])(=O)=O)cc3[S]([O-])(=O)=O,-0.41455972390,0.00000000000,1,G1,885.75600,-7.47540,178.02190,56,20,4,30,16,284,4,0,0,4,357.54,384.37955487964,0.00000522666,2607.26352680726
A-3821,2-ethyl-3-methylpyrazine,"InChI=1S/C7H10N2/c1-3-7-6(2)8-4-5-9-7/h4-5H,3H2,1-2H3",LNIMMWYNSBZESE-UHFFFAOYSA-N,CCc1nccnc1C,0.44451078830,0.00000000000,1,G1,122.17100,1.34742,36.14700,9,2,0,2,1,48,1,0,0,1,25.78,54.96552542458,3.00652400733,195.86256853720
A-3822,hydroxyazanium chloride,"InChI=1S/ClH.H3NO/c;1-2/h1H;2H,1H2",WTDHULULXKLSOZ-UHFFFAOYSA-N,[H+].[Cl-].NO,0.68955035570,0.00000000000,1,G1,69.49100,-3.54920,7.08590,3,2,2,3,0,22,0,0,0,0,46.25,26.10036348416,-0.00000000500,8.00000000000
A-3825,N-(prop-2-enamidomethyl)prop-2-enamide,"InChI=1S/C7H10N2O2/c1-3-6(10)8-5-9-7(11)4-2/h3-4H,1-2,5H2,(H,8,10)(H,9,11)",ZIUHHBKFKCYYJD-UHFFFAOYSA-N,C=CC(=O)NCNC(=O)C=C,-0.65524267640,0.00000000000,1,G1,154.16900,-0.45170,41.54640,11,2,2,4,4,60,0,0,0,0,58.20,64.97246621714,3.41219053496,166.87959510731
A-3830,L-sorbosonic acid,"InChI=1S/C6H10O7/c7-1-2(8)3(9)4(10)5(11)6(12)13/h2-4,7-10H,1H2,(H,12,13)/t2-,3+,4-/m0/s1",VBUYCZFBVCCYFD-NUNKFHFFSA-N,OC[C@H](O)[C@@H](O)[C@H](O)C(=O)C(O)=O,0.23732076520,0.00000000000,1,G1,194.13900,-3.28490,37.74900,13,6,5,7,5,76,0,0,0,0,135.29,72.85817456088,4.32734428434,201.15944809715
A-3831,Methyl morpholine oxide,"InChI=1S/C5H11NO2/c1-6(7)2-4-8-5-3-6/h2-5H2,1H3",LFTLOKWAGJYHHR-UHFFFAOYSA-N,C[N+]1([O-])CCOCC1,0.45630992850,0.00000000000,1,G1,117.14800,-0.03900,30.10440,8,2,0,3,0,48,0,1,1,1,32.29,49.02481096987,2.32788287941,74.49785513558
A-3832,tris(2-hydroxyethanaminium) citrate,"InChI=1S/C6H8O7.3C2H7NO/c7-3(8)1-6(13,5(11)12)2-4(9)10;3*3-1-2-4/h13H,1-2H2,(H,7,8)(H,9,10)(H,11,12);3*4H,1-3H2",USDOPHAAWSJWLS-UHFFFAOYSA-N,[NH3+]CCO.[NH3+]CCO.[NH3+]CCO.OC(CC([O-])=O)(CC([O-])=O)C([O-])=O,-0.05016011640,0.00000000000,1,G1,375.37500,-10.59080,73.72750,25,10,7,13,8,152,0,0,0,0,284.23,143.83498240332,-0.00000015000,309.59291128035
A-3833,sodium 2-[(2-aminoethyl)amino]ethanesulfonate,"InChI=1S/C4H12N2O3S.Na/c5-1-2-6-3-4-10(7,8)9;/h6H,1-5H2,(H,7,8,9);/q;+1/p-1",VRRABDXZDGRGPC-UHFFFAOYSA-M,[Na+].NCCNCC[S]([O-])(=O)=O,0.24453595420,0.00000000000,1,G1,190.20000,-4.91610,36.48830,11,5,2,7,5,62,0,0,0,0,95.25,88.76586588439,0.00000000000,170.17598409834
A-3834,"trisodium 2-[(E)-2-{4-[(E)-2-{4-[(4-amino-6-chloro-1,3,5-triazin-2-yl)amino]-5-sulfonatonaphthalen-1-yl}diazen-1-yl]-2,5-dimethylphenyl}diazen-1-yl]benzene-1,4-disulfonate","InChI=1S/C27H22ClN9O9S3.3Na/c1-13-11-20(36-37-21-12-15(47(38,39)40)6-9-22(21)48(41,42)43)14(2)10-19(13)35-34-17-7-8-18(30-27-32-25(28)31-26(29)33-27)24-16(17)4-3-5-23(24)49(44,45)46;;;/h3-12H,1-2H3,(H,38,39,40)(H,41,42,43)(H,44,45,46)(H3,29,30,31,32,33);;;/q;3*+1/p-3",QODWDUXKFKJVCQ-UHFFFAOYSA-K,[Na+].[Na+].[Na+].Cc1cc(N=Nc2cc(ccc2[S]([O-])(=O)=O)[S]([O-])(=O)=O)c(C)cc1N=Nc3ccc(Nc4nc(N)nc(Cl)n4)c5c3cccc5[S]([O-])(=O)=O,-0.38694569130,0.00000000000,1,G1,814.12700,-3.82406,171.07970,52,18,2,25,9,254,5,0,0,5,297.76,367.88586013580,0.00000312111,2562.69449390411
A-3835,potassium 3-(acryloyloxy)propane-1-sulfonate,"InChI=1S/C6H10O5S.K/c1-2-6(7)11-4-3-5-12(8,9)10;/h2H,1,3-5H2,(H,8,9,10);/q;+1/p-1",VSFOXJWBPGONDR-UHFFFAOYSA-M,[K+].[O-][S](=O)(=O)CCCOC(=O)C=C,1.15626832450,0.00000000000,1,G1,232.29800,-3.34510,40.33720,13,5,0,7,5,70,0,0,0,0,83.50,119.70062660258,0.00000000000,258.19817649230
A-3836,"trisodium 1-amino-4-[[3-[[4-chloro-6-[(3-sulphonatophenyl)amino]-1,3,5-triazin-2-yl]amino]-2,4,6-trimethyl-5-sulphonatophenyl]amino]-9,10-dihydro-9,10-dioxoanthracene-2-sulphonate","InChI=1S/C32H26ClN7O11S3.3Na/c1-13-25(36-20-12-21(53(46,47)48)24(34)23-22(20)27(41)18-9-4-5-10-19(18)28(23)42)14(2)29(54(49,50)51)15(3)26(13)37-32-39-30(33)38-31(40-32)35-16-7-6-8-17(11-16)52(43,44)45;;;/h4-12,36H,34H2,1-3H3,(H,43,44,45)(H,46,47,48)(H,49,50,51)(H2,35,37,38,39,40);;;/q;3*+1/p-3",ZUCXUTRTSQLRCV-UHFFFAOYSA-K,[Na+].[Na+].[Na+].Cc1c(Nc2nc(Cl)nc(Nc3cccc(c3)[S]([O-])(=O)=O)n2)c(C)c(c(C)c1Nc4cc(c(N)c5C(=O)c6ccccc6C(=O)c45)[S]([O-])(=O)=O)[S]([O-])(=O)=O,-0.42442798520,0.00000000000,1,G1,882.19800,-5.23704,189.83110,57,18,4,25,9,280,5,0,1,6,306.52,396.87949787811,0.00000290083,2850.79229051648
A-3837,"trisodium 1-amino-4-{[3-({4-chloro-6-[(2-sulfonatophenyl)amino]-1,3,5-triazin-2-yl}amino)-2,4,6-trimethyl-5-sulfonatophenyl]amino}-9,10-dioxo-9,10-dihydroanthracene-2-sulfonate","InChI=1S/C32H26ClN7O11S3.3Na/c1-13-25(35-19-12-21(53(46,47)48)24(34)23-22(19)27(41)16-8-4-5-9-17(16)28(23)42)14(2)29(54(49,50)51)15(3)26(13)37-32-39-30(33)38-31(40-32)36-18-10-6-7-11-20(18)52(43,44)45;;;/h4-12,35H,34H2,1-3H3,(H,43,44,45)(H,46,47,48)(H,49,50,51)(H2,36,37,38,39,40);;;/q;3*+1/p-3",GWZGQKXBZOLBKS-UHFFFAOYSA-K,[Na+].[Na+].[Na+].Cc1c(Nc2nc(Cl)nc(Nc3ccccc3[S]([O-])(=O)=O)n2)c(C)c(c(C)c1Nc4cc(c(N)c5C(=O)c6ccccc6C(=O)c45)[S]([O-])(=O)=O)[S]([O-])(=O)=O,-0.42442798520,0.00000000000,1,G1,882.19800,-5.23704,189.83110,57,18,4,25,9,280,5,0,1,6,306.52,396.87949787811,0.00000290083,2850.79229051648
A-3842,4-fluoroaniline,"InChI=1S/C6H6FN/c7-5-1-3-6(8)4-2-5/h1-4H,8H2",KRZCOLNOCZKSDF-UHFFFAOYSA-N,Nc1ccc(F)cc1,-0.52727438450,0.00000000000,1,G1,111.11900,1.40790,30.81240,8,1,1,2,0,42,1,0,0,1,26.02,46.93682921944,3.03245553203,147.38833891467
A-3846,"hexasodium;(3~{Z})-5-[[4-morpholin-4-yl-6-[4-[(~{E})-2-[4-[[4-morpholin-4-yl-6-[[(7~{Z})-8-oxo-7-(phenylhydrazinylidene)-3,6-disulfonatonaphthalen-1-yl]amino]-1,3,5-triazin-2-yl]amino]-2-sulfonatophenyl]ethenyl]-3-sulfonatoanilino]-1,3,5-triazin-2-yl]amino]-4-oxo-3-(phenylhydrazinylidene)naphthalene-2,7-disulfonate","InChI=1S/C60H52N16O22S6.6Na/c77-53-49-35(27-47(103(91,92)93)51(53)73-71-37-7-3-1-4-8-37)25-41(99(79,80)81)31-43(49)63-57-65-55(67-59(69-57)75-17-21-97-22-18-75)61-39-15-13-33(45(29-39)101(85,86)87)11-12-34-14-16-40(30-46(34)102(88,89)90)62-56-66-58(70-60(68-56)76-19-23-98-24-20-76)64-44-32-42(100(82,83)84)26-36-28-48(104(94,95)96)52(54(78)50(36)44)74-72-38-9-5-2-6-10-38;;;;;;/h1-16,25-32,71-72H,17-24H2,(H,79,80,81)(H,82,83,84)(H,85,86,87)(H,88,89,90)(H,91,92,93)(H,94,95,96)(H2,61,63,65,67,69)(H2,62,64,66,68,70);;;;;;/q;6*+1/p-6/b12-11+,73-51+,74-52+;;;;;;",XGUYBIZUGAOMJN-NSVLGCOKSA-H,C1N(CCOC1)C2=NC(=NC(=N2)NC3=C4C(=O)/C(=N/NC5=CC=CC=C5)/C(=CC4=CC(=C3)S(=O)(=O)[O-])S(=O)(=O)[O-])NC6=CC(=C(C=C6)/C=C/C7=C(C=C(C=C7)NC8=NC(=NC(=N8)N9CCOCC9)NC1=C2C(=O)/C(=N/NC3=CC=CC=C3)/C(=CC2=CC(=C1)S(=O)(=O)[O-])S(=O)(=O)[O-])S(=O)(=O)[O-])S(=O)(=O)[O-].[Na+].[Na+].[Na+].[Na+].[Na+].[Na+],-1.14479615300,0.00000000000,1,G1,1673.46000,-14.38400,364.40640,110,38,6,50,22,540,8,2,4,12,576.52,759.97788070596,0.00000314880,5449.66854444563
A-3847,3-acetyloxolan-2-one,"InChI=1S/C6H8O3/c1-4(7)5-2-3-9-6(5)8/h5H,2-3H2,1H3",OMQHDIHZSDEIFH-UHFFFAOYSA-N,CC(=O)C1CCOC1=O,0.39750932070,0.10205466035,2,G3,128.12700,0.13850,29.74700,9,3,0,3,1,50,0,1,1,1,43.37,52.99471987588,2.59759685025,150.38196255841
A-3850,"sodium 3,5-bis(methoxycarbonyl)benzene-1-sulfonate","InChI=1S/C10H10O7S.Na/c1-16-9(11)6-3-7(10(12)17-2)5-8(4-6)18(13,14)15;/h3-5H,1-2H3,(H,13,14,15);/q;+1/p-1",LLHSEQCZSNZLRI-UHFFFAOYSA-M,[Na+].COC(=O)c1cc(cc(c1)[S]([O-])(=O)=O)C(=O)OC,-0.96648199240,0.00000000000,1,G1,296.23200,-2.83210,57.08420,19,7,0,9,3,98,1,0,0,1,109.80,131.48334186894,0.00000324000,559.64577303043
A-3852,sodium chloride,InChI=1S/ClH.Na/h1H;/q;+1/p-1,FAPWRFPIFSIZLT-UHFFFAOYSA-M,[Na+].[Cl-],0.73432676110,0.00000000000,1,G1,58.44300,-5.99200,0.00000,2,0,0,2,0,8,0,0,0,0,0.00,41.93497063517,0.00000000000,2.00000000000
A-3853,dilithium pentanedioate,"InChI=1S/C5H8O4.2Li/c6-4(7)2-1-3-5(8)9;;/h1-3H2,(H,6,7)(H,8,9);;/q;2*+1/p-2",PLYZFCVUMQOYCR-UHFFFAOYSA-L,[Li+].[Li+].[O-]C(=O)CCCC([O-])=O,0.34275407660,0.00000000000,1,G1,143.98100,-8.33550,23.86500,11,4,0,6,4,52,0,0,0,0,80.26,88.70566224176,-0.00000032000,111.65082519883
A-3854,"4-hydroxy-2,5-dimethyl-2,3-dihydrofuran-3-one","InChI=1S/C6H8O3/c1-3-5(7)6(8)4(2)9-3/h3,8H,1-2H3",INAXVXBDKKUCGI-UHFFFAOYSA-N,CC1OC(=C(O)C1=O)C,0.39066989620,0.00000000000,1,G1,128.12700,0.76370,30.88280,9,3,1,3,0,50,0,0,1,1,46.53,52.93782849585,2.87300793889,180.74199426320
A-3855,5-benzoyl-4-hydroxy-2-methoxybenzene-1-sulfonic acid,"InChI=1S/C14H12O6S.Na/c1-20-12-8-11(15)10(7-13(12)21(17,18)19)14(16)9-5-3-2-4-6-9;/h2-8,15H,1H3,(H,17,18,19);/q;+1/p-1",KJCLYACXIWMFCC-UHFFFAOYSA-M,[Na+].COc1cc(O)c(cc1[S]([O-])(=O)=O)C(=O)c2ccccc2,-0.02238485100,0.00000000000,1,G1,330.29300,-1.46010,72.49650,22,6,1,8,4,110,2,0,0,2,103.73,149.32971826885,0.00000242000,786.48040325947
A-3858,"2,2,4-trimethylpentane-1,3-diol","InChI=1S/C8H18O2/c1-6(2)7(10)8(3,4)5-9/h6-7,9-10H,5H2,1-4H3",JCTXKRPTIMZBJT-UHFFFAOYSA-N,CC(C)C(O)C(C)(C)CO,-0.66672592620,0.10978703690,2,G3,146.23000,1.02180,41.71160,10,2,2,2,3,62,0,0,0,0,40.46,62.88231333300,4.03411824118,97.43071362054
A-3865,2-Ethylhexyl (2S)-2-hydroxypropanoate,"InChI=1S/C11H22O3/c1-4-6-7-10(5-2)8-14-11(13)9(3)12/h9-10,12H,4-8H2,1-3H3/t9-,10?/m0/s1",FECDACOUYKFOOP-RGURZIINSA-N,CCCCC(CC)COC(=O)[C@H](C)O,-2.67352570970,0.00000000000,1,G1,202.29400,2.12680,55.94580,14,3,1,3,7,84,0,0,0,0,46.53,86.45797325354,3.66103649128,154.61163365356
A-3866,cyclopentanone,InChI=1S/C5H8O/c6-5-3-1-2-4-5/h1-4H2,BGTOWKSIORTVQH-UHFFFAOYSA-N,O=C1CCCC1,0.55367755730,0.00000000000,1,G1,84.11800,1.12950,23.47500,6,1,0,1,0,34,0,1,1,1,17.07,37.35471043193,2.36735185102,58.33869642764
A-3867,N-methylmethanaminium chloride,"InChI=1S/C2H7N.ClH/c1-3-2;/h3H,1-2H3;1H",IQDGSYLLQPDQDV-UHFFFAOYSA-N,[H+].[Cl-].CNC,1.56571859190,0.00000000000,1,G1,81.54600,-3.04790,16.09570,4,1,1,2,0,28,0,0,0,0,12.03,34.29194694788,-0.00000002000,9.60964047444
A-3868,hydrogen sulfide; manganese,InChI=1S/Mn.H2S/h;1H2,TWJXYBSUGSKHPM-UHFFFAOYSA-N,S.[Mn],-4.15991175640,0.00000000000,1,G1,89.02100,0.11030,10.38100,2,0,0,2,0,15,0,0,0,0,0.00,31.15695248709,0.00000000000,2.00000000000
A-3869,methyl formate,"InChI=1S/C2H4O2/c1-4-2-3/h2H,1H3",TZIHFWKZFHZASV-UHFFFAOYSA-N,COC=O,0.69859377880,0.05769670935,2,G3,60.05200,-0.21080,13.07300,4,2,0,2,1,24,0,0,0,0,26.30,24.37926047178,2.29683526192,18.00000000000
A-3870,"trisodium 8-hydroxypyrene-1,3,6-trisulfonate","InChI=1S/C16H10O10S3.3Na/c17-11-5-12(27(18,19)20)8-3-4-10-14(29(24,25)26)6-13(28(21,22)23)9-2-1-7(11)15(8)16(9)10;;;/h1-6,17H,(H,18,19,20)(H,21,22,23)(H,24,25,26);;;/q;3*+1/p-3",KXXXUIKPSVVSAW-UHFFFAOYSA-K,[Na+].[Na+].[Na+].Oc1cc(c2ccc3c4c(ccc1c24)c(cc3[S]([O-])(=O)=O)[S]([O-])(=O)=O)[S]([O-])(=O)=O,-0.24253563100,0.00000000000,1,G1,524.39300,-7.98610,95.70040,32,10,1,16,3,152,4,0,0,4,191.83,248.37576224529,0.00000170667,1630.11219394041
A-3872,"4-methyl-3a,4,7,7a-tetrahydro-2-benzofuran-1,3-dione","InChI=1S/C9H10O3/c1-5-3-2-4-6-7(5)9(11)12-8(6)10/h2-3,5-7H,4H2,1H3",XPEKVUUBSDFMDR-UHFFFAOYSA-N,CC1C=CCC2C1C(=O)OC2=O,-0.73626846160,0.00000000000,1,G1,166.17600,0.89820,41.00000,12,3,0,3,0,64,0,1,2,2,43.37,70.39411203335,2.32373496176,266.94721312874
A-3873,N-isopropyl-2-methylacrylamide,"InChI=1S/C7H13NO/c1-5(2)7(9)8-6(3)4/h6H,1H2,2-4H3,(H,8,9)",YQIGLEFUZMIVHU-UHFFFAOYSA-N,CC(C)NC(=O)C(C)=C,-0.62014288430,0.00000000000,1,G1,127.18700,1.08710,38.09270,9,1,1,2,2,52,0,0,0,0,29.10,55.95068496568,3.64742469154,126.87784055858
A-3874,"disodium 2,2'-ethene-1,2-diylbis[5-({4-anilino-6-[(2-hydroxyethyl)amino]-1,3,5-triazin-2-yl}amino)benzenesulfonate]","InChI=1S/C36H36N12O8S2.2Na/c49-19-17-37-31-43-33(39-25-7-3-1-4-8-25)47-35(45-31)41-27-15-13-23(29(21-27)57(51,52)53)11-12-24-14-16-28(22-30(24)58(54,55)56)42-36-46-32(38-18-20-50)44-34(48-36)40-26-9-5-2-6-10-26;;/h1-16,21-22,49-50H,17-20H2,(H,51,52,53)(H,54,55,56)(H3,37,39,41,43,45,47)(H3,38,40,42,44,46,48);;/q;2*+1/p-2/b12-11+;;",HIMNALZNLAOESZ-YHPRVSEPSA-L,[Na+].[Na+].OCCNc1nc(Nc2ccccc2)nc(Nc3ccc(\C=C\c4ccc(Nc5nc(NCCO)nc(Nc6ccccc6)n5)cc4[S]([O-])(=O)=O)c(c3)[S]([O-])(=O)=O)n1,-1.45921439970,0.00000000000,1,G1,872.85800,-2.17400,214.55820,60,20,8,24,18,300,6,0,0,6,304.38,388.50652356124,0.00000396899,2455.93598466154
A-3875,2-(2-ethoxyethoxy)-2-methylpropane,"InChI=1S/C8H18O2/c1-5-9-6-7-10-8(2,3)4/h5-7H2,1-4H3",NUNQKTCKURIZQX-UHFFFAOYSA-N,CCOCCOC(C)(C)C,-0.68791522530,0.04554023470,2,G3,146.23000,1.83800,42.19800,10,2,0,2,4,62,0,0,0,0,18.46,63.52093628762,3.04375840897,73.81700155457
A-3876,3-methoxybutyl acetate,"InChI=1S/C7H14O3/c1-6(9-3)4-5-10-7(2)8/h6H,4-5H2,1-3H3",QMYGFTJCQFEDST-UHFFFAOYSA-N,COC(C)CCOC(C)=O,-0.68778452820,0.47281937965,3,G5,146.18600,0.97450,37.72100,10,3,0,3,4,60,0,0,0,0,35.53,61.31751627327,3.11046547598,101.02434166398
A-3877,"Sulfuric acid, mono-C12-18-alkyl esters, sodium salts","InChI=1S/C15H32O4S.Na/c1-2-3-4-5-6-7-8-9-10-11-12-13-14-15-19-20(16,17)18;/h2-15H2,1H3,(H,16,17,18);/q;+1/p-1",SMECTXYFLVLAJE-UHFFFAOYSA-M,[Na+].CCCCCCCCCCCCCCCO[S]([O-])(=O)=O,-1.04200552900,0.46040937695,2,G3,330.46600,1.55840,81.34420,21,4,0,6,15,122,0,0,0,0,66.43,153.21302536770,0.00000000000,294.04874268074
A-3878,carbamimidoylsulfinic acid,"InChI=1S/CH4N2O2S/c2-1(3)6(4)5/h(H3,2,3)(H,4,5)",FYOWZTWVYZOZSI-UHFFFAOYSA-N,NC(=N)[S](O)=O,-0.55679281580,0.00000000000,1,G1,108.12200,-0.89843,22.68530,6,2,3,5,0,36,0,0,0,0,87.17,37.14198455594,3.56770345504,77.54887502163
A-3880,tert-butyl 2-methylpropaneperoxoate,"InChI=1S/C8H16O3/c1-6(2)7(9)10-11-8(3,4)5/h6H,1-5H3",PFBLRDXPNUJYJM-UHFFFAOYSA-N,CC(C)C(=O)OOC(C)(C)C,-1.60700256680,0.00000000000,1,G1,160.21300,1.91570,41.76800,11,3,0,3,2,66,0,0,0,0,35.53,67.61175370340,3.63661638116,132.76282190103
A-3881,"(2,2-dimethoxyethyl)benzene","InChI=1S/C10H14O2/c1-11-10(12-2)8-9-6-4-3-5-7-9/h3-7,10H,8H2,1-2H3",WNJSKZBEWNVKGU-UHFFFAOYSA-N,COC(Cc1ccccc1)OC,-1.62961867090,0.00000000000,1,G1,166.22000,1.84800,47.95200,12,2,0,2,4,66,1,0,0,1,18.46,73.11826203610,2.50806249497,204.33838110546
A-3882,"1,3,5-triazine-2,4,6-triamine phosphate","InChI=1S/C3H6N6.H3O4P/c4-1-7-2(5)9-3(6)8-1;1-5(2,3)4/h(H6,4,5,6,7,8,9);(H3,1,2,3,4)",XFZRQAZGUOTJCS-UHFFFAOYSA-N,Nc1nc(N)nc(N)n1.O[P](O)(O)=O,-1.75941019340,0.05697167615,2,G3,224.11700,-2.31040,47.32710,14,7,6,11,0,80,1,0,0,1,194.49,78.04816223797,0.00000029178,292.18741090468
A-3883,"2H,4H,4aH,5H,9bH-indeno[1,2-d][1,3]dioxine","InChI=1S/C11H12O2/c1-2-4-10-8(3-1)5-9-6-12-7-13-11(9)10/h1-4,9,11H,5-7H2",CZSXBBWOROMVEW-UHFFFAOYSA-N,C1OCC2Cc3ccccc3C2O1,-1.65609327290,0.00000000000,1,G1,176.21500,1.90430,48.28100,13,2,0,2,0,68,1,1,2,3,18.46,77.47154184344,2.00780056084,321.62124698111
A-3884,"3-[(4-hydroxy-3-methoxyphenyl)methyl]pentane-2,4-dione","InChI=1S/C13H16O4/c1-8(14)11(9(2)15)6-10-4-5-12(16)13(7-10)17-3/h4-5,7,11,16H,6H2,1-3H3",IFGDRUTWCITGHG-UHFFFAOYSA-N,COc1cc(CC(C(C)=O)C(C)=O)ccc1O,-1.78636594910,0.00000000000,1,G1,236.26700,1.73750,63.21480,17,4,1,4,5,92,1,0,0,1,63.60,100.21682110206,2.93785663910,423.04564473442
A-3889,"(2R,3R,4R,5S)-2-(hydroxymethyl)piperidine-3,4,5-triol","InChI=1S/C6H13NO4/c8-2-3-5(10)6(11)4(9)1-7-3/h3-11H,1-2H2/t3-,4+,5-,6-/m1/s1",LXBIFEVIBLOUGU-JGWLITMVSA-N,OC[C@H]1NC[C@H](O)[C@@H](O)[C@@H]1O,0.40435204280,0.00000000000,1,G1,163.17300,-2.96680,36.89690,11,5,5,5,1,66,0,1,1,1,92.95,64.28492763868,2.51642427061,129.75069066894
A-3890,diethyl chloromalonate,"InChI=1S/C7H11ClO4/c1-3-11-6(9)5(8)7(10)12-4-2/h5H,3-4H2,1-2H3",WLWCQKMQYZFTDR-UHFFFAOYSA-N,CCOC(=O)C(Cl)C(=O)OCC,-1.72097235490,0.00000000000,1,G1,194.61400,0.72000,42.90700,12,4,0,5,4,70,0,0,0,0,52.60,75.78230460019,3.91026523675,150.78931106511
A-3891,sodium 6-amino-4-hydroxy-5-[(E)-2-[2-(trifluoromethyl)phenyl]diazen-1-yl]naphthalene-2-sulfonate,"InChI=1S/C17H12F3N3O4S.Na/c18-17(19,20)11-3-1-2-4-13(11)22-23-16-12(21)6-5-9-7-10(28(25,26)27)8-14(24)15(9)16;/h1-8,21-23H,(H,25,26,27);/q;+1/p-1",GVCNKWIFAPJNDM-UHFFFAOYSA-M,[Na+].[O-][S](=O)(=O)C1=CC(=O)C2=C(NNc3ccccc3C(F)(F)F)C(=N)C=CC2=C1,-2.06863006150,0.00000000000,1,G1,433.34300,-0.59223,92.96530,29,7,3,12,4,146,1,0,2,3,122.18,185.13106727036,0.00000300000,1118.97745295295
A-3892,2-(2-{2-[(2-methylprop-2-enoyl)oxy]ethoxy}ethoxy)ethyl 2-methylprop-2-enoate,"InChI=1S/C14H22O6/c1-11(2)13(15)19-9-7-17-5-6-18-8-10-20-14(16)12(3)4/h1,3,5-10H2,2,4H3",HWSSEYVMGDIFMH-UHFFFAOYSA-N,CC(=C)C(=O)OCCOCCOCCOC(=O)C(C)=C,-1.90055525180,0.00000000000,1,G1,286.32400,1.25820,73.18400,20,6,0,6,11,114,0,0,0,0,71.06,118.88151756873,3.25243785812,313.57329118964
A-3893,4-[(4-amino-3-methylcyclohexyl)methyl]-2-methylcyclohexan-1-amine,"InChI=1S/C15H30N2/c1-10-7-12(3-5-14(10)16)9-13-4-6-15(17)11(2)8-13/h10-15H,3-9,16-17H2,1-2H3",IGSBHTZEJMPDSZ-UHFFFAOYSA-N,CC1CC(CCC1N)CC2CCC(N)C(C)C2,-1.82103836130,0.13143493135,3,G5,238.41900,2.90350,73.57780,17,2,2,2,2,100,0,2,2,2,52.04,106.51655971635,1.77547241856,217.07631885586
A-3895,"2,5-dimethylphenol","InChI=1S/C8H10O/c1-6-3-4-7(2)8(9)5-6/h3-5,9H,1-2H3",NKTOLZVEWDHZMU-UHFFFAOYSA-N,Cc1ccc(C)c(O)c1,-1.53758275690,0.02347201615,2,G3,122.16700,2.00904,37.58080,9,1,1,1,0,48,1,0,0,1,20.23,54.95552110049,3.17167803044,215.80766205434
A-3896,"{[(2R,3S,4R,5R)-5-(6-amino-9H-purin-9-yl)-3,4-dihydroxyoxolan-2-yl]methoxy}phosphonic acid","InChI=1S/C10H14N5O7P/c11-8-5-9(13-2-12-8)15(3-14-5)10-7(17)6(16)4(22-10)1-21-23(18,19)20/h2-4,6-7,10,16-17H,1H2,(H2,11,12,13)(H2,18,19,20)",UDMBCSSLTHHNCD-UHFFFAOYSA-N,Nc1ncnc2n(cnc12)C3OC(CO[P](O)(O)=O)C(O)C3O,-1.99530261940,0.22735130970,2,G3,347.22400,-1.86300,73.65510,23,10,5,13,4,126,2,1,1,3,186.07,128.30354975942,1.85114752749,763.13782843738
A-3897,"1,1,2-trichloroethane","InChI=1S/C2H3Cl3/c3-1-2(4)5/h2H,1H2",UBOXGVDOUJQMTN-UHFFFAOYSA-N,ClCC(Cl)Cl,-1.58110406280,0.05065203140,2,G3,133.40500,2.02890,26.21400,5,0,0,3,1,32,0,0,0,0,0.00,46.01399182287,2.53953886136,18.85475297227
A-3898,"2,3,5-trimethylbenzene-1,4-diol","InChI=1S/C9H12O2/c1-5-4-8(10)6(2)7(3)9(5)11/h4,10-11H,1-3H3",AUFZRCJENRSRLY-UHFFFAOYSA-N,Cc1cc(O)c(C)c(C)c1O,-1.63832663350,0.00000000000,1,G1,152.19300,2.02306,43.98260,11,2,2,2,0,60,1,0,0,1,40.46,66.11469696708,3.45554648382,263.85447421348
A-3900,[2-(4-aminobenzenesulfonyl)ethoxy]sulfonic acid,"InChI=1S/C8H11NO6S2/c9-7-1-3-8(4-2-7)16(10,11)6-5-15-17(12,13)14/h1-4H,5-6,9H2,(H,12,13,14)",IALORYHODRVWKZ-UHFFFAOYSA-N,Nc1ccc(cc1)[S](=O)(=O)CCO[S](O)(=O)=O,-1.90511867020,0.00000000000,1,G1,281.31100,-0.13810,60.40780,17,6,2,9,5,96,1,0,0,1,123.76,99.07776154269,2.72844644930,574.94634817284
A-3903,"tris(prop-2-en-1-yl)-1,3,5-triazinane-2,4,6-trione","InChI=1S/C12H15N3O3/c1-4-7-13-10(16)14(8-5-2)12(18)15(9-6-3)11(13)17/h4-6H,1-3,7-9H2",KOMNUTZXSVSERR-UHFFFAOYSA-N,C=CCN1C(=O)N(CC=C)C(=O)N(CC=C)C1=O,-1.85260196930,0.00000000000,1,G1,249.27000,-0.27030,69.81300,18,6,0,6,6,96,1,0,0,1,66.00,103.42049775527,3.74279648342,525.22061421432
A-3904,methyl 3-aminopyrazine-2-carboxylate,"InChI=1S/C6H7N3O2/c1-11-6(10)4-5(7)9-3-2-8-4/h2-3H,1H3,(H2,7,9)",INCSQLZZXBPATR-UHFFFAOYSA-N,COC(=O)c1nccnc1N,-1.64226605170,0.00000000000,1,G1,153.14100,-0.15460,37.78390,11,5,1,5,1,58,1,0,0,1,78.10,63.21554133675,3.03266215580,274.28483507740
A-3905,"1,3,5-triazine-2,4,6-triamine","InChI=1S/C3H6N6/c4-1-7-2(5)9-3(6)8-1/h(H6,4,5,6,7,8,9)",JDSHMPZPIAZGSV-UHFFFAOYSA-N,Nc1nc(N)nc(N)n1,-1.55921504850,0.07673953831,3,G5,126.12300,-1.38180,33.06420,9,6,3,6,0,48,1,0,0,1,116.73,51.11001915337,3.16567030992,169.06517765500