ID,Name,InChI,InChIKey,SMILES,Solubility,SD,Ocurrences,Group,MolWt,MolLogP,MolMR,HeavyAtomCount,NumHAcceptors,NumHDonors,NumHeteroatoms,NumRotatableBonds,NumValenceElectrons,NumAromaticRings,NumSaturatedRings,NumAliphaticRings,RingCount,TPSA,LabuteASA,BalabanJ,BertzCT
A-2515,dibutyltin maleate,"InChI=1S/C4H4O4.2C4H9.Sn/c5-3(6)1-2-4(7)8;2*1-3-4-2;/h1-2H,(H,5,6)(H,7,8);2*1,3-4H2,2H3;/q;;;+2/p-2/b2-1+;;;",ZBBLRPRYYSJUCZ-YOTINIEPSA-L,CCCC[Sn++]CCCC.[O-]C(=O)\C=C\C([O-])=O,-4.54032822320,0.00000000000,1,G1,346.99900,0.16980,64.33800,17,4,0,5,8,96,0,0,0,0,80.26,113.32635618649,0.00000000000,204.54551832722
A-2516,hydroxyzincio 2-methylprop-2-enoate,"InChI=1S/C4H6O2.H2O.Zn/c1-3(2)4(5)6;;/h1H2,2H3,(H,5,6);1H2;/q;;+2/p-2",QBPJVVCNLUNWJN-UHFFFAOYSA-L,CC(=C)C(=O)O[Zn]O,-4.22396035910,0.00000000000,1,G1,167.47900,0.01050,23.12480,8,3,1,4,2,42,0,0,0,0,46.53,55.74721029269,3.49045306660,109.85105031545
A-2517,"propane-1,2-diyl bisoctadec-9-enoate","InChI=1S/C39H72O4/c1-4-6-8-10-12-14-16-18-20-22-24-26-28-30-32-34-38(40)42-36-37(3)43-39(41)35-33-31-29-27-25-23-21-19-17-15-13-11-9-7-5-2/h18-21,37H,4-17,22-36H2,1-3H3/b20-18-,21-19-",UMHYVXGZRGOICM-AUYXYSRISA-N,CCCCCCCC\C=C/CCCCCCCC(=O)OCC(C)OC(=O)CCCCCCC\C=C/CCCCCCCC,-4.78175609250,0.00000000000,1,G1,605.00100,12.53630,185.41700,43,4,0,4,33,252,0,0,0,0,52.60,267.77797996963,3.46426233332,653.62244918701
A-2519,"4',4'''-azobis[N-(9,10-dihydro-9,10-dioxo-1-anthryl)[1,1'-biphenyl]-4-carboxamide]","InChI=1S/C54H32N4O6/c59-49-39-7-1-3-9-41(39)51(61)47-43(49)11-5-13-45(47)55-53(63)35-19-15-31(16-20-35)33-23-27-37(28-24-33)57-58-38-29-25-34(26-30-38)32-17-21-36(22-18-32)54(64)56-46-14-6-12-44-48(46)52(62)42-10-4-2-8-40(42)50(44)60/h1-30H,(H,55,63)(H,56,64)",AJDUTMFFZHIJEM-UHFFFAOYSA-N,O=C(Nc1cccc2C(=O)c3ccccc3C(=O)c12)c4ccc(cc4)c5ccc(cc5)N=Nc6ccc(cc6)c7ccc(cc7)C(=O)Nc8cccc9C(=O)c%10ccccc%10C(=O)c89,-5.71645827930,0.00000000000,1,G1,832.87200,11.49140,243.33640,64,8,2,10,8,304,8,0,2,10,151.20,365.52468775323,0.75729611582,3077.45845503560
A-2520,Di-p-xylylene,"InChI=1S/C16H16/c1-2-14-4-3-13(1)9-10-15-5-7-16(8-6-15)12-11-14/h1-8H,9-12H2",OOLUVSIJOMLOCB-UHFFFAOYSA-N,C1Cc2ccc(CCc3ccc1cc3)cc2,-5.16947849700,0.00000000000,1,G1,208.30400,3.57040,67.70000,16,0,0,0,0,80,2,0,4,6,0.00,96.94243462962,1.96829625290,368.89642649060
A-2521,Violanthrone,InChI=1S/C34H16O2/c35-33-25-7-3-1-5-17(25)19-9-11-21-22-12-10-20-18-6-2-4-8-26(18)34(36)28-16-14-24(30(22)32(20)28)23-13-15-27(33)31(19)29(21)23/h1-16H,YKSGNOMLAIJTLT-UHFFFAOYSA-N,O=C1c2ccccc2c3ccc4c5ccc6c7ccccc7C(=O)c8ccc(c9ccc1c3c49)c5c68,-5.51331274620,0.00000000000,1,G1,456.50000,7.94600,152.58800,36,2,0,2,0,164,9,0,0,9,34.14,203.16581333374,1.63109134276,2308.74781332746
A-2525,Vat green 1,"InChI=1S/C36H20O4/c1-39-27-15-25-17-7-3-5-9-21(17)35(37)23-13-11-19-20-12-14-24-30-26(18-8-4-6-10-22(18)36(24)38)16-28(40-2)34(32(20)30)33(27)31(19)29(23)25/h3-16H,1-2H3",JXUKQCUPTNLTCS-UHFFFAOYSA-N,COc1cc2c3ccccc3C(=O)c4ccc5c6ccc7C(=O)c8ccccc8c9cc(OC)c(c1c5c24)c6c79,-5.59917069510,0.00000000000,1,G1,516.55200,7.96320,165.69200,40,4,0,4,2,188,9,0,0,9,52.60,226.12278802154,1.68723116768,2468.34196584774
A-2526,"Alcohols, C12-15-branched and linear","InChI=1S/C12H26O/c1-3-5-6-9-12(8-4-2)10-7-11-13/h12-13H,3-11H2,1-2H3/t12-/m0/s1",YJIYBYOWBOONOU-LBPRGKRZSA-N,CCCCC[C@H](CCC)CCCO,-5.15636040820,0.10542668265,2,G3,186.33900,3.75550,58.85980,13,1,1,1,9,80,0,0,0,0,20.23,83.54784803839,3.41127850953,91.12526634449
A-2528,"1,1-bis(tert-butylperoxy)cyclohexane","InChI=1S/C14H28O4/c1-12(2,3)15-17-14(10-8-7-9-11-14)18-16-13(4,5)6/h7-11H2,1-6H3",HSLFISVKRDQEBY-UHFFFAOYSA-N,CC(C)(C)OOC1(CCCCC1)OOC(C)(C)C,-5.38621383730,0.01469188885,2,G3,260.37400,4.14020,69.66200,18,4,0,4,4,108,0,1,1,1,36.92,110.79043891096,2.57430315006,223.50005622533
A-2532,"(2E,4E,6E,8E)-3,7-dimethyl-9-(2,6,6-trimethylcyclohex-1-en-1-yl)nona-2,4,6,8-tetraen-1-yl hexadecanoate","InChI=1S/C36H60O2/c1-7-8-9-10-11-12-13-14-15-16-17-18-19-25-35(37)38-30-28-32(3)23-20-22-31(2)26-27-34-33(4)24-21-29-36(34,5)6/h20,22-23,26-28H,7-19,21,24-25,29-30H2,1-6H3/b23-20+,27-26+,31-22+,32-28+",VYGQUTWHTHXGQB-FFHKNEKCSA-N,CCCCCCCCCCCCCCCC(=O)OC/C=C(C)/C=C/C=C(C)/C=C/C1=C(C)CCCC1(C)C,-5.72005506020,0.00000000000,1,G1,524.87400,11.54250,167.39700,38,2,0,2,20,216,0,0,1,1,26.30,236.33344604681,2.13327645797,803.19889186898
A-2535,(2R)-2-[4-[5-(trifluoromethyl)pyridin-2-yl]oxyphenoxy]propanoic acid,"InChI=1S/C15H12F3NO4/c1-9(14(20)21)22-11-3-5-12(6-4-11)23-13-7-2-10(8-19-13)15(16,17)18/h2-9H,1H3,(H,20,21)/t9-/m1/s1",YUVKUEAFAVKILW-SECBINFHSA-N,C[C@@H](Oc1ccc(Oc2ccc(cn2)C(F)(F)F)cc1)C(O)=O,-2.62279566920,0.51349174485,2,G2,327.25800,3.74460,73.48080,23,4,1,8,5,122,2,0,0,2,68.65,128.84736628413,2.01946430239,668.61649895808
A-2537,"1,1-bis[(2-methylbutan-2-yl)peroxy]cyclohexane","InChI=1S/C16H32O4/c1-7-14(3,4)17-19-16(12-10-9-11-13-16)20-18-15(5,6)8-2/h7-13H2,1-6H3",IMYCVFRTNVMHAD-UHFFFAOYSA-N,CCC(C)(C)OOC1(CCCCC1)OOC(C)(C)CC,-5.46003741850,0.50464405991,3,G4,288.42800,4.92040,78.89600,20,4,0,4,8,120,0,1,1,1,36.92,123.52032313975,2.61712741565,258.20145961515
A-2538,"1,2-Dihydro-2,2,4-trimethylquinoline, oligomers","InChI=1S/C12H15N/c1-9-8-12(2,3)13-11-7-5-4-6-10(9)11/h4-8,13H,1-3H3",ZNRLMGFXSPUZNR-UHFFFAOYSA-N,CC1=CC(C)(C)Nc2ccccc12,-5.23869580350,0.47214287463,4,G5,173.25900,3.29400,57.79470,13,1,1,1,0,68,1,0,1,2,12.03,79.47548380377,2.54974883070,361.14215552223
A-2540,1-chlorooctane,"InChI=1S/C8H17Cl/c1-2-3-4-5-6-7-8-9/h2-8H2,1H3",CNDHHGUSRIZDSL-UHFFFAOYSA-N,CCCCCCCCCl,-5.17224378930,0.34465442955,2,G3,148.67700,3.58570,44.09600,9,0,0,1,6,56,0,0,0,0,0.00,63.59711205549,2.59508270679,37.83229392179
A-2541,"2,2,4,4,6,6,8,8,10,10,12,12-dodecamethyl-3,5,7,9,11-pentaoxa-2,4,6,8,10,12-hexasilatridecane","InChI=1S/C14H42O5Si6/c1-20(2,3)15-22(7,8)17-24(11,12)19-25(13,14)18-23(9,10)16-21(4,5)6/h1-14H3",ADANNTOYRVPQLJ-UHFFFAOYSA-N,C[Si](C)(C)O[Si](C)(C)O[Si](C)(C)O[Si](C)(C)O[Si](C)(C)O[Si](C)(C)C,-5.66181363170,0.00000000000,1,G1,459.00100,5.54640,122.04500,25,5,0,11,10,152,0,0,0,0,46.15,162.57043342386,5.01226094261,399.97373472683
A-2542,"2,2-bis[(sulfanyloxy)methyl]butyl phosphinite 1,5-bis[2-methyl-3-(sulfanyloxy)-2-[(sulfanyloxy)methyl]propyl] pentanedioate","InChI=1S/C15H28O8S4.C6H15O3PS2/c1-14(8-20-24,9-21-25)6-18-12(16)4-3-5-13(17)19-7-15(2,10-22-26)11-23-27;1-2-6(3-7-10,4-8-11)5-9-12/h24-27H,3-11H2,1-2H3;11-12H,2-5,10H2,1H3",BTOXUEYJVDLLSS-UHFFFAOYSA-N,CCC(COP)(COS)COS.CC(COS)(COS)COC(=O)CCCC(=O)OCC(C)(COS)COS,-5.84194730990,0.00000000000,1,G1,694.94000,4.61360,169.99700,39,17,6,18,23,234,0,0,0,0,117.21,267.98986445171,0.00000000000,572.15467852596
A-2543,Tetra(10B)boron carbide,InChI=1S/CB4/c2-1-3(2)5(1)4(1)2,INAHAJYZKVIDIZ-UHFFFAOYSA-N,B12B3B4B1C234,-4.74240302140,0.57133375180,2,G2,55.25900,-1.30840,25.70900,5,0,0,4,0,16,0,4,4,4,0.00,31.93863100479,2.71108350560,106.21716552203
A-2544,"2-(2H-1,2,3-benzotriazol-2-yl)-4-(2,4,4-trimethylpentan-2-yl)phenol","InChI=1S/C20H25N3O/c1-19(2,3)13-20(4,5)14-10-11-18(24)17(12-14)23-21-15-8-6-7-9-16(15)22-23/h6-12,24H,13H2,1-5H3",IYAZLDLPUNDVAG-UHFFFAOYSA-N,CC(C)(C)CC(C)(C)c1ccc(O)c(c1)n2nc3ccccc3n2,-5.50979372830,1.34948500220,2,G2,323.44000,4.83990,97.62780,24,4,1,4,3,126,3,0,0,3,50.94,142.67926753098,2.05880038821,838.96650056519
A-2545,"2-(2H-1,2,3-benzotriazol-2-yl)-4-methylphenol","InChI=1S/C13H11N3O/c1-9-6-7-13(17)12(8-9)16-14-10-4-2-3-5-11(10)15-16/h2-8,17H,1H3",MCPKSFINULVDNX-UHFFFAOYSA-N,Cc1ccc(O)c(c1)n2nc3ccccc3n2,-5.35266672770,0.38097694845,2,G3,225.25100,2.43452,65.26680,17,4,1,4,1,84,3,0,0,3,50.94,98.12467273020,2.23157463743,654.94736482672
A-2546,"2-[(2-{[3-(3,5-di-tert-butyl-4-hydroxyphenyl)propanoyl]oxy}ethyl)sulfanyl]ethyl 3-(3,5-di-tert-butyl-4-hydroxyphenyl)propanoate","InChI=1S/C38H58O6S/c1-35(2,3)27-21-25(22-28(33(27)41)36(4,5)6)13-15-31(39)43-17-19-45-20-18-44-32(40)16-14-26-23-29(37(7,8)9)34(42)30(24-26)38(10,11)12/h21-24,41-42H,13-20H2,1-12H3",VFBJXXJYHWLXRM-UHFFFAOYSA-N,CC(C)(C)c1cc(CCC(=O)OCCSCCOC(=O)CCc2cc(c(O)c(c2)C(C)(C)C)C(C)(C)C)cc(c1O)C(C)(C)C,-5.80817247230,0.00000000000,1,G1,642.94300,8.67280,186.89860,45,7,2,7,12,252,2,0,0,2,93.06,276.23870448873,1.75353438284,1144.19728289146
A-2547,2-[2-(2-{[3-(3-tert-butyl-4-hydroxy-5-methylphenyl)propanoyl]oxy}ethoxy)ethoxy]ethyl 3-(3-tert-butyl-4-hydroxy-5-methylphenyl)propanoate,"InChI=1S/C34H50O8/c1-23-19-25(21-27(31(23)37)33(3,4)5)9-11-29(35)41-17-15-39-13-14-40-16-18-42-30(36)12-10-26-20-24(2)32(38)28(22-26)34(6,7)8/h19-22,37-38H,9-18H2,1-8H3",QSRJVOOOWGXUDY-UHFFFAOYSA-N,Cc1cc(CCC(=O)OCCOCCOCCOC(=O)CCc2cc(C)c(O)c(c2)C(C)(C)C)cc(c1O)C(C)(C)C,-5.76846494080,0.49148333035,2,G3,586.76600,5.99464,163.28560,42,8,2,8,15,234,2,0,0,2,111.52,250.88291646479,1.52995185278,1093.99390283503
A-2548,2-benzoyl-5-(octyloxy)phenol,"InChI=1S/C21H26O3/c1-2-3-4-5-6-10-15-24-18-13-14-19(20(22)16-18)21(23)17-11-8-7-9-12-17/h7-9,11-14,16,22H,2-6,10,15H2,1H3",QUAMTGJKVDWJEQ-UHFFFAOYSA-N,CCCCCCCCOc1ccc(c(O)c1)C(=O)c2ccccc2,-5.51379804760,1.50000000000,2,G2,326.43600,5.36250,96.85230,24,3,1,3,10,128,2,0,0,2,46.53,143.84227743688,1.84784745186,634.78704619455
A-2549,2-butyloctan-1-ol,"InChI=1S/C12H26O/c1-3-5-7-8-10-12(11-13)9-6-4-2/h12-13H,3-11H2,1-2H3",XMVBHZBLHNOQON-UHFFFAOYSA-N,CCCCCCC(CO)CCCC,-5.27030376050,0.00000000000,1,G1,186.33900,3.75550,58.85980,13,1,1,1,9,80,0,0,0,0,20.23,83.54784803839,3.25370289705,91.12526634449
A-2550,2-decyltetradecan-1-ol,"InChI=1S/C24H50O/c1-3-5-7-9-11-13-14-16-18-20-22-24(23-25)21-19-17-15-12-10-8-6-4-2/h24-25H,3-23H2,1-2H3",CAYHVMBQBLYQMT-UHFFFAOYSA-N,CCCCCCCCCCCCC(CO)CCCCCCCCCC,-5.54981588330,0.00000000000,1,G1,354.66300,8.43670,114.26380,25,1,1,1,21,152,0,0,0,0,20.23,159.92715341115,3.27640775133,226.13550476168
A-2551,2-dodecylhexadecan-1-ol,"InChI=1S/C28H58O/c1-3-5-7-9-11-13-15-16-18-20-22-24-26-28(27-29)25-23-21-19-17-14-12-10-8-6-4-2/h28-29H,3-27H2,1-2H3",DEMBLPGWNXUBIQ-UHFFFAOYSA-N,CCCCCCCCCCCCCCC(CO)CCCCCCCCCCCC,-5.61359977530,0.00000000000,1,G1,410.77100,9.99710,132.73180,29,1,1,1,25,176,0,0,0,0,20.23,185.38692186873,3.26692602553,275.48738667631
A-2552,2-ethyl-1-{[(2-ethylhexyl)oxy]methoxy}hexane,"InChI=1S/C17H36O2/c1-5-9-11-16(7-3)13-18-15-19-14-17(8-4)12-10-6-2/h16-17H,5-15H2,1-4H3",QPIWJVQXEMCELO-UHFFFAOYSA-N,CCCCC(CC)COCOCC(CC)CCCC,-5.43532347350,0.00000000000,1,G1,272.47300,5.40990,83.38300,19,2,0,2,14,116,0,0,0,0,18.46,120.80541531719,3.49766921149,152.64499996503
A-2553,2-hexyldecan-1-ol,"InChI=1S/C16H34O/c1-3-5-7-9-10-12-14-16(15-17)13-11-8-6-4-2/h16-17H,3-15H2,1-2H3",XULHFMYCBKQGEE-UHFFFAOYSA-N,CCCCCCCCC(CO)CCCCCC,-5.38461681460,0.00000000000,1,G1,242.44700,5.31590,77.32780,17,1,1,1,13,104,0,0,0,0,20.23,109.00761649597,3.28415588806,133.48686830126
A-2554,"2-tert-butyl-6-(5-chloro-2H-1,2,3-benzotriazol-2-yl)-4-methylphenol","InChI=1S/C17H18ClN3O/c1-10-7-12(17(2,3)4)16(22)15(8-10)21-19-13-6-5-11(18)9-14(13)20-21/h5-9,22H,1-4H3",OCWYEMOEOGEQAN-UHFFFAOYSA-N,Cc1cc(n2nc3ccc(Cl)cc3n2)c(O)c(c1)C(C)(C)C,-5.49941762650,1.19897000435,2,G2,315.80400,4.38542,88.97680,22,4,1,5,1,114,3,0,0,3,50.94,133.88770741467,2.23587286750,862.20193336646
A-2555,2-tert-butyl-6-[(3-tert-butyl-5-ethyl-2-hydroxyphenyl)methyl]-4-ethylphenol,"InChI=1S/C25H36O2/c1-9-16-11-18(22(26)20(13-16)24(3,4)5)15-19-12-17(10-2)14-21(23(19)27)25(6,7)8/h11-14,26-27H,9-10,15H2,1-8H3",GPNYZBKIGXGYNU-UHFFFAOYSA-N,CCc1cc(Cc2cc(CC)cc(c2O)C(C)(C)C)c(O)c(c1)C(C)(C)C,-5.56650937760,1.56656109285,2,G2,368.56100,6.40840,115.17560,27,2,2,2,4,148,2,0,0,2,40.46,164.82121231711,2.63501211895,748.18334218413
A-2556,2-tetradecyloctadecan-1-ol,"InChI=1S/C32H66O/c1-3-5-7-9-11-13-15-17-18-20-22-24-26-28-30-32(31-33)29-27-25-23-21-19-16-14-12-10-8-6-4-2/h32-33H,3-31H2,1-2H3",RTXVDAJGIYOHFY-UHFFFAOYSA-N,CCCCCCCCCCCCCCCCC(CO)CCCCCCCCCCCCCC,-5.66920434000,0.00000000000,1,G1,466.87900,11.55750,151.19980,33,1,1,1,29,200,0,0,0,0,20.23,210.84669032632,3.25767325999,326.46500593883
A-2559,3-octadecyl-1-{3-[(octadecylcarbamoyl)amino]propyl}urea,"InChI=1S/C41H84N4O2/c1-3-5-7-9-11-13-15-17-19-21-23-25-27-29-31-33-36-42-40(46)44-38-35-39-45-41(47)43-37-34-32-30-28-26-24-22-20-18-16-14-12-10-8-6-4-2/h3-39H2,1-2H3,(H2,42,44,46)(H2,43,45,47)",UZXKVMHAGOJYHP-UHFFFAOYSA-N,CCCCCCCCCCCCCCCCCCNC(=O)NCCCNC(=O)NCCCCCCCCCCCCCCCCCC,-5.82291894250,0.00000000000,1,G1,665.14900,12.49790,206.51180,47,2,4,6,38,280,0,0,0,0,82.26,293.85942853821,3.24468369723,578.56561202321
A-2561,4-amino-N-(2-ethylhexyl)benzene-1-sulfonamide,"InChI=1S/C14H24N2O2S/c1-3-5-6-12(4-2)11-16-19(17,18)14-9-7-13(15)8-10-14/h7-10,12,16H,3-6,11,15H2,1-2H3",HHEXVLXMZIVFSS-UHFFFAOYSA-N,CCCCC(CC)CN[S](=O)(=O)c1ccc(N)cc1,-5.45396776680,0.00000000000,1,G1,284.42500,2.76350,79.34890,19,3,2,5,8,108,1,0,0,1,72.19,116.00146880771,2.61363600984,468.72426089919
A-2563,"5-tert-butyl-2-[5-(5-tert-butyl-1,3-benzoxazol-2-yl)thiophen-2-yl]-1,3-benzoxazole","InChI=1S/C26H26N2O2S/c1-25(2,3)15-7-9-19-17(13-15)27-23(29-19)21-11-12-22(31-21)24-28-18-14-16(26(4,5)6)8-10-20(18)30-24/h7-14H,1-6H3",AIXZBGVLNVRQSS-UHFFFAOYSA-N,CC(C)(C)c1ccc2oc(nc2c1)c3sc(cc3)c4oc5ccc(cc5n4)C(C)(C)C,-5.63404679300,1.00000000000,2,G2,430.57300,7.95950,127.72500,31,5,0,5,2,158,5,0,0,5,52.06,185.49677527073,1.49651068120,1300.50059500595
A-2564,6-[3-(decanoyloxy)-2-[(heptanoyloxy)methyl]-2-[(octanoyloxy)methyl]propoxy]-6-oxohexanoic acid,"InChI=1S/C10H20O2.C8H16O2.C6H10O4.C6H14O3.C6H12O2/c1-2-3-4-5-6-7-8-9-10(11)12;1-2-3-4-5-6-7-8(9)10;7-5(8)3-1-2-4-6(9)10;1-2-6(3-7,4-8)5-9;1-2-3-4-5-6(7)8/h2-9H2,1H3,(H,11,12);2-7H2,1H3,(H,9,10);1-4H2,(H,7,8)(H,9,10);7-9H,2-5H2,1H3;2-5H2,1H3,(H,7,8)",YCGWUEYSZNACHN-UHFFFAOYSA-N,CCCCCCCCCC(O)=O.CCCCCCCC(O)=O.CCCCCC(O)=O.CCC(CO)(CO)CO.OC(=O)CCCCC(O)=O,-5.85306455570,0.00000000000,1,G1,712.95900,7.37020,190.75640,49,8,8,13,27,294,0,0,0,0,247.19,294.69703016361,-0.00000016567,719.70833345753
A-2565,Pigment Red 224,InChI=1S/C24H8O6/c25-21-13-5-1-9-10-2-6-15-20-16(24(28)30-23(15)27)8-4-12(18(10)20)11-3-7-14(22(26)29-21)19(13)17(9)11/h1-8H,CLYVDMAATCIVBF-UHFFFAOYSA-N,O=C1OC(=O)c2ccc3c4ccc5C(=O)OC(=O)c6ccc(c7ccc1c2c37)c4c56,-5.59364266250,0.00000000000,1,G1,392.32200,3.54600,114.64800,30,6,0,6,0,140,7,0,0,7,94.56,163.73516211837,1.94705790055,1791.04558705572
A-2566,"O,O,O-tris(4-nitrophenyl) thiophosphate","InChI=1S/C18H12N3O9PS/c22-19(23)13-1-7-16(8-2-13)28-31(32,29-17-9-3-14(4-10-17)20(24)25)30-18-11-5-15(6-12-18)21(26)27/h1-12H",DMRUHNJUTAJPSU-UHFFFAOYSA-N,[O-][N+](=O)c1ccc(O[P](=S)(Oc2ccc(cc2)[N+]([O-])=O)Oc3ccc(cc3)[N+]([O-])=O)cc1,-5.67883419750,0.00000000000,1,G1,477.34700,5.17250,115.45820,32,10,0,14,9,164,3,0,0,3,157.11,184.22508249086,1.88960767244,1050.90724216352
A-2567,barium(2+) ion 4-[(E)-2-(5-chloro-4-methyl-2-sulfonatophenyl)diazen-1-yl]-3-hydroxynaphthalene-2-carboxylate,"InChI=1S/C18H13ClN2O6S.Ba/c1-9-6-15(28(25,26)27)14(8-13(9)19)20-21-16-11-5-3-2-4-10(11)7-12(17(16)22)18(23)24;/h2-8,20H,1H3,(H,23,24)(H,25,26,27);/q;+2/p-2/b21-16+;",TTXAKIMEQNUACJ-JEBHESKQSA-L,[Ba++].Cc1cc(c(N\N=C/2C(=O)C(=Cc3ccccc23)C([O-])=O)cc1Cl)[S]([O-])(=O)=O,-5.74518569440,0.80102999565,2,G2,556.14200,0.70392,104.49890,29,8,1,11,4,144,2,0,1,3,138.79,211.02335726346,0.00000300000,1190.83265652223
A-2568,barium(2+) ion bis(2-[(E)-2-(2-hydroxynaphthalen-1-yl)diazen-1-yl]naphthalene-1-sulfonate),"InChI=1S/2C20H14N2O4S.Ba/c2*23-18-12-10-13-5-1-3-7-15(13)19(18)22-21-17-11-9-14-6-2-4-8-16(14)20(17)27(24,25)26;/h2*1-12,21H,(H,24,25,26);/q;;+2/p-2/b2*22-19-;",MMXGUEISHWEPDM-JBLAVHSWSA-L,[Ba++].[O-][S](=O)(=O)c1c(N\N=C\2C(=O)C=Cc3ccccc23)ccc4ccccc14.[O-][S](=O)(=O)c5c(N\N=C\6C(=O)C=Cc7ccccc67)ccc8ccccc58,-5.95042814380,0.75967527582,3,G4,892.13000,5.93120,210.86180,55,12,2,15,6,268,6,0,2,8,197.32,355.48761265633,0.00000018367,2691.61353975424
A-2569,bis(11-methyldodecyl) phthalate,"InChI=1S/C34H58O4/c1-29(2)23-17-13-9-5-7-11-15-21-27-37-33(35)31-25-19-20-26-32(31)34(36)38-28-22-16-12-8-6-10-14-18-24-30(3)4/h19-20,25-26,29-30H,5-18,21-24,27-28H2,1-4H3",BCSGAWBQJHXXSE-UHFFFAOYSA-N,CC(C)CCCCCCCCCCOC(=O)c1ccccc1C(=O)OCCCCCCCCCCC(C)C,-5.72495873170,0.00000000000,1,G1,530.83400,10.33400,159.78900,38,4,0,4,24,218,1,0,0,1,52.60,234.19991698170,2.13436963115,663.95093385863
A-2570,calcium bis[2-[(2-hydroxynaphthyl)azo]naphthalenesulphonate],"InChI=1S/2C20H14N2O4S.Ca/c2*23-18-12-10-13-5-1-3-7-15(13)19(18)22-21-17-11-9-14-6-2-4-8-16(14)20(17)27(24,25)26;/h2*1-12,21H,(H,24,25,26);/q;;+2/p-2/b2*22-19-;",AKLXUSFMCRHRNU-JBLAVHSWSA-L,[Ca++].[O-][S](=O)(=O)c1c(N\N=C\2C(=O)C=Cc3ccccc23)ccc4ccccc14.[O-][S](=O)(=O)c5c(N\N=C\6C(=O)C=Cc7ccccc67)ccc8ccccc58,-5.90030156980,0.00000000000,1,G1,794.88000,5.93120,210.86180,55,12,2,15,6,268,6,0,2,8,197.32,345.02724009323,0.00000018367,2691.61353975424
A-2571,diindium trioxide,InChI=1S/2In.3O/q2*+3;3*-2,PJXISJQVUVHSOJ-UHFFFAOYSA-N,[O--].[O--].[O--].[In+3].[In+3],-5.44347108590,0.00000000000,1,G1,277.63300,-1.11800,13.56750,5,0,0,5,0,24,0,0,0,0,85.50,67.62694762038,0.00000000000,4.85475297227
A-2572,diisotridecyl adipate,"InChI=1S/C32H62O4/c1-29(2)23-17-13-9-5-7-11-15-21-27-35-31(33)25-19-20-26-32(34)36-28-22-16-12-8-6-10-14-18-24-30(3)4/h29-30H,5-28H2,1-4H3",WPUKZOKYKHYASK-UHFFFAOYSA-N,CC(C)CCCCCCCCCCOC(=O)CCCCC(=O)OCCCCCCCCCCC(C)C,-5.70828829680,1.57754471431,5,G4,510.84400,9.96700,153.16800,36,4,0,4,27,214,0,0,0,0,52.60,224.60259123323,3.29915875954,442.54728249201
A-2573,docosan-1-ol,"InChI=1S/C22H46O/c1-2-3-4-5-6-7-8-9-10-11-12-13-14-15-16-17-18-19-20-21-22-23/h23H,2-22H2,1H3",NOPFSRXAKWQILS-UHFFFAOYSA-N,CCCCCCCCCCCCCCCCCCCCCCO,-5.51402814790,0.00000000000,1,G1,326.60900,7.80060,105.09980,23,1,1,1,20,140,0,0,0,0,20.23,147.19726918235,2.92196219439,170.41176113600
A-2574,dodecyl 3-{[3-(dodecyloxy)-3-oxopropyl]sulfanyl}propanoate,"InChI=1S/C30H58O4S/c1-3-5-7-9-11-13-15-17-19-21-25-33-29(31)23-27-35-28-24-30(32)34-26-22-20-18-16-14-12-10-8-6-4-2/h3-28H2,1-2H3",GHKOFFNLGXMVNJ-UHFFFAOYSA-N,CCCCCCCCCCCCOC(=O)CCSCCC(=O)OCCCCCCCCCCCC,-5.71168662180,0.00000000000,1,G1,514.85700,9.42800,152.16500,35,5,0,5,28,208,0,0,0,0,52.60,221.99581702980,3.27156985653,415.63745210350
A-2575,ethyl 4-[[(methylphenylamino)methylene]amino]benzoate,"InChI=1S/C17H18N2O2/c1-3-21-17(20)14-9-11-15(12-10-14)18-13-19(2)16-7-5-4-6-8-16/h4-13H,3H2,1-2H3",GNGYPJUKIKDJQT-UHFFFAOYSA-N,CCOC(=O)c1ccc(cc1)N=CN(C)c2ccccc2,-5.45077702490,0.00000000000,1,G1,282.34300,3.65950,85.39550,21,3,0,4,5,108,2,0,0,2,41.90,124.24343138316,2.02888911846,606.44705153134
A-2577,hexadecyl hexadecyloxy dicarbonate,"InChI=1S/C34H66O6/c1-3-5-7-9-11-13-15-17-19-21-23-25-27-29-31-37-33(35)39-40-34(36)38-32-30-28-26-24-22-20-18-16-14-12-10-8-6-4-2/h3-32H2,1-2H3",QWVBGCWRHHXMRM-UHFFFAOYSA-N,CCCCCCCCCCCCCCCCOC(=O)OOC(=O)OCCCCCCCCCCCCCCCC,-5.75655700010,0.00000000000,1,G1,570.89600,12.17040,165.49000,40,6,0,6,30,238,0,0,0,0,71.06,247.48886123677,3.26838256620,478.56131214590
A-2578,hexadecyl(trimethoxy)silane,"InChI=1S/C19H42O3Si/c1-5-6-7-8-9-10-11-12-13-14-15-16-17-18-19-23(20-2,21-3)22-4/h5-19H2,1-4H3",RSKGMYDENCAJEN-UHFFFAOYSA-N,CCCCCCCCCCCCCCCC[Si](OC)(OC)OC,-5.53986364130,0.00000000000,1,G1,346.62800,6.34580,101.90000,23,3,0,4,18,140,0,0,0,0,27.69,146.39981760759,3.24576636505,224.38995225984
A-2579,hexanal; pentanal; propanedial,"InChI=1S/C6H12O.C5H10O.C3H4O2/c1-2-3-4-5-6-7;1-2-3-4-5-6;4-2-1-3-5/h6H,2-5H2,1H3;5H,2-4H2,1H3;2-3H,1H2",BJBMXVQYJNODIZ-UHFFFAOYSA-N,CCCCCC=O.CCCCC=O.O=CCC=O,-5.41222191390,0.00000000000,1,G1,258.35800,2.91540,72.54000,18,4,0,4,9,106,0,0,0,0,68.28,110.14124922222,-0.00000019047,172.63280491265
A-2580,hydrate iron potassium,InChI=1S/Fe.K.2O/q+3;+1;2*-2,UMPKMCDVBZFQOK-UHFFFAOYSA-N,[O--].[O--].[K+].[Fe+3],-5.10360191520,0.00000000000,1,G1,126.94100,-3.23610,1.37300,4,0,0,4,0,21,0,0,0,0,57.00,77.84816958432,0.00000000000,6.00000000000
A-2581,hydrate lithium potassium titanium,InChI=1S/K.Li.H2O.Ti/h;;1H2;,UFWQXTAKIFGGMA-UHFFFAOYSA-N,[Li].O.[K].[Ti],-5.04891158190,0.00000000000,1,G1,111.92100,-1.58880,15.12180,4,0,0,4,0,14,0,0,0,0,31.50,95.07549502414,0.00000000000,8.00000000000