ID,Name,InChI,InChIKey,SMILES,Solubility,SD,Ocurrences,Group,MolWt,MolLogP,MolMR,HeavyAtomCount,NumHAcceptors,NumHDonors,NumHeteroatoms,NumRotatableBonds,NumValenceElectrons,NumAromaticRings,NumSaturatedRings,NumAliphaticRings,RingCount,TPSA,LabuteASA,BalabanJ,BertzCT
A-2987,lithium(1+) ion trifluoromethanesulfonate,"InChI=1S/CHF3O3S.Li/c2-1(3,4)8(5,6)7;/h(H,5,6,7);",WDGKXRCNMKPDSD-UHFFFAOYSA-N,[Li].O[S](=O)(=O)C(F)(F)F,0.90304019810,0.00000000000,1,G1,157.01800,0.01320,23.35760,9,2,1,8,0,51,0,0,0,0,54.37,61.16205877258,0.00000000000,167.98710676103
A-2988,amino(imino)methanaminium nitrate,"InChI=1S/CH5N3.HNO3/c2*2-1(3)4/h(H5,2,3,4);(H,2,3,4)",CNUNWZZSUJPAHX-UHFFFAOYSA-N,NC(N)=N.O[N+]([O-])=O,0.01025126280,0.00000000000,1,G1,122.08400,-1.50913,24.88240,8,3,4,7,0,48,0,0,0,0,139.26,44.51146254882,0.00000000000,69.28421251514
A-2991,2-(2-ethoxyethoxy)ethyl prop-2-enoate,"InChI=1S/C9H16O4/c1-3-9(10)13-8-7-12-6-5-11-4-2/h3H,1,4-8H2,2H3",FTALTLPZDVFJSS-UHFFFAOYSA-N,CCOCCOCCOC(=O)C=C,-0.18125100600,0.00000000000,1,G1,188.22300,0.76870,48.46800,13,4,0,4,8,76,0,0,0,0,44.76,78.47134269938,2.99088699463,144.55012792536
A-2993,butanedinitrile,InChI=1S/C4H4N2/c5-3-1-2-4-6/h1-2H2,IAHFWCOBPZCAEA-UHFFFAOYSA-N,N#CCCC#N,0.17524088940,0.01232121950,2,G3,80.09000,0.81376,20.46000,6,2,0,2,1,30,0,0,0,0,47.58,36.61923673396,2.78354082779,79.09616281329
A-2994,"disodium 3-[(E)-2-[4-(1-{4-[(E)-2-(1,7-dihydroxy-3-sulfonatonaphthalen-2-yl)diazen-1-yl]-3-methylphenyl}cyclohexyl)-2-methylphenyl]diazen-1-yl]-4,6-dihydroxynaphthalene-2-sulfonate","InChI=1S/C40H36N4O10S2.2Na/c1-22-16-26(8-12-32(22)41-43-36-34(55(49,50)51)18-24-6-10-28(45)20-30(24)38(36)47)40(14-4-3-5-15-40)27-9-13-33(23(2)17-27)42-44-37-35(56(52,53)54)19-25-7-11-29(46)21-31(25)39(37)48;;/h6-13,16-21,41-44H,3-5,14-15H2,1-2H3,(H,49,50,51)(H,52,53,54);;/q;2*+1/p-2",FEGFQZKEEWPHPY-UHFFFAOYSA-L,[Na+].[Na+].Cc1cc(ccc1NNC2=C(C=C3C=CC(=O)C=C3C2=O)[S]([O-])(=O)=O)C4(CCCCC4)c5ccc(NNC6=C(C=C7C=CC(=O)C=C7C6=O)[S]([O-])(=O)=O)c(C)c5,-0.85478846080,0.00000000000,1,G1,840.84400,-1.94296,203.82620,58,14,4,18,10,288,2,1,5,7,230.80,379.03077694413,0.00000320333,2488.20658029295
A-2999,benzenesulfonic acid,"InChI=1S/C6H6O3S/c7-10(8,9)6-4-2-1-3-5-6/h1-5H,(H,7,8,9)",SRSXLGNVWSONIS-UHFFFAOYSA-N,O[S](=O)(=O)c1ccccc1,0.84890709310,0.00000000000,1,G1,158.17800,0.93330,36.25660,10,2,1,4,1,54,1,0,0,1,54.37,59.06003912954,3.21864662888,301.02463059506
A-3000,xylenesulphonic acid,"InChI=1S/C8H10O3S/c1-6-4-3-5-8(7(6)2)12(9,10)11/h3-5H,1-2H3,(H,9,10,11)",ZZXDRXVIRVJQBT-UHFFFAOYSA-N,Cc1cccc(c1C)[S](O)(=O)=O,0.77799886580,0.07535546489,4,G5,186.23200,1.55014,45.73060,12,2,1,4,1,66,1,0,0,1,54.37,71.78992335833,3.46847853456,392.76404179901
A-3001,"sodium hydrogen 4-amino-5-hydroxynaphthalene-2,7-disulfonate","InChI=1S/C10H9NO7S2.Na/c11-8-3-6(19(13,14)15)1-5-2-7(20(16,17)18)4-9(12)10(5)8;/h1-4,12H,11H2,(H,13,14,15)(H,16,17,18);/q;+1/p-1",QPILZZVXGUNELN-UHFFFAOYSA-M,[Na+].Nc1cc(cc2cc(cc(O)c12)[S]([O-])(=O)=O)[S](O)(=O)=O,-1.47622889200,0.00000000000,1,G1,341.29800,-2.71760,67.80300,21,7,3,11,2,108,2,0,0,2,157.82,141.91786374323,0.00000220500,849.31202099425
A-3002,oxalic acid,"InChI=1S/C2H2O4/c3-1(4)2(5)6/h(H,3,4)(H,5,6)",MUBZPKHOEPUJKR-UHFFFAOYSA-N,OC(=O)C(O)=O,0.07901721020,0.58579592729,3,G4,90.03400,-0.84440,15.27160,6,2,2,4,0,34,0,0,0,0,74.60,33.01570484671,3.56770345504,71.54887502163
A-3003,potassium trihydrogen diethanedioate,"InChI=1S/2C2H2O4.K/c2*3-1(4)2(5)6;/h2*(H,3,4)(H,5,6);",INYYFFJLLWWJOT-UHFFFAOYSA-N,[K].OC(=O)C(O)=O.OC(=O)C(O)=O,-0.30734942590,0.31774187340,2,G3,219.16600,-2.06960,36.29720,13,4,4,9,0,69,0,0,0,0,149.20,113.58549662887,-0.00000014286,172.18391637045
A-3004,lithium(1+) ion nitrate,InChI=1S/Li.NO3/c;2-1(3)4/q+1;-1,IIPYXGDZVMZOAP-UHFFFAOYSA-N,[Li+].[O-][N+]([O-])=O,1.17009739580,0.00000000000,1,G1,68.94500,-3.23510,10.36140,5,3,0,5,0,24,0,0,0,0,66.20,40.07312241354,0.00000000000,29.87430298093
A-3005,2-(butylamino)ethan-1-ol,"InChI=1S/C6H15NO/c1-2-3-4-7-5-6-8/h7-8H,2-6H2,1H3",LJDSTRZHPWMDPG-UHFFFAOYSA-N,CCCCNCCO,0.93110203400,0.00000000000,1,G1,117.19200,0.36840,34.86350,8,2,2,2,5,50,0,0,0,0,32.26,50.90805753562,2.53006045688,33.50977500433
A-3006,2-(methylamino)ethan-1-ol,"InChI=1S/C3H9NO/c1-4-2-3-5/h4-5H,2-3H2,1H3",OPKOKAMJFNKNAS-UHFFFAOYSA-N,CNCCO,1.12429645590,0.00000000000,1,G1,75.11100,-0.80190,21.01250,5,2,2,2,2,32,0,0,0,0,32.26,31.81323119243,2.19060968716,14.36452797660
A-3007,2-aminoethan-1-ol,"InChI=1S/C2H7NO/c3-1-2-4/h4H,1-3H2",HZAXFHJVJLSVMW-UHFFFAOYSA-N,NCCO,1.21407253150,0.00000000000,1,G1,61.08400,-1.06260,16.14020,4,2,2,2,1,26,0,0,0,0,46.25,25.23831759143,1.97474487139,8.00000000000
A-3008,"N,N-dimethylformamide","InChI=1S/C3H7NO/c1-4(2)3-5/h3H,1-2H3",ZMXDDKWLCZADIW-UHFFFAOYSA-N,CN(C)C=O,1.13611232960,0.00000000000,1,G1,73.09500,-0.29560,19.75100,5,1,0,2,1,30,0,0,0,0,20.31,31.39049102687,2.82574936875,33.87430298093
A-3009,chromium(3+) ion hydroxide sulfate,"InChI=1S/Cr.H2O4S.H2O/c;1-5(2,3)4;/h;(H2,1,2,3,4);1H2/q+3;;/p-3",DSHWASKZZBZKOE-UHFFFAOYSA-K,[OH-].[Cr+3].[O-][S]([O-])(=O)=O,0.78234237270,1.84948500215,2,G2,165.06600,-1.51730,12.41040,7,5,0,7,0,43,0,0,0,0,110.26,51.36044897213,-0.00000008000,91.24856184822
A-3010,disodium sulfanediide,InChI=1S/Na.H2S/h;1H2/q+1;,HYHCSLBZRBJJCH-UHFFFAOYSA-N,[Na+].S,1.24356929850,0.00000000000,1,G1,57.07300,-2.88320,10.38100,2,0,0,2,0,8,0,0,0,0,0.00,42.97473183758,0.00000000000,2.00000000000
A-3017,sodium 3-[(E)-2-[5-(diethylsulfamoyl)-2-methoxyphenyl]diazen-1-yl]-4-hydroxynaphthalene-1-sulfonate,"InChI=1S/C21H23N3O7S2.Na/c1-4-24(5-2)32(26,27)14-10-11-19(31-3)17(12-14)22-23-18-13-20(33(28,29)30)15-8-6-7-9-16(15)21(18)25;/h6-13,22H,4-5H2,1-3H3,(H,28,29,30);/q;+1/p-1/b23-18+;",AGXNLHROVWJXBE-XHMOQMQQSA-M,[Na+].CCN(CC)[S](=O)(=O)c1ccc(OC)c(N\N=C\2C=C(c3ccccc3C2=O)[S]([O-])(=O)=O)c1,-2.46675391140,0.00000000000,1,G1,515.54500,-0.71980,122.60520,34,9,1,13,8,176,2,0,1,3,145.27,220.33057538404,0.00000408333,1366.48588378180
A-3018,ethyl N-ethyl-N-phenylcarbamate,"InChI=1S/C11H15NO2/c1-3-12(11(13)14-4-2)10-8-6-5-7-9-10/h5-9H,3-4H2,1-2H3",XEFYPTRGVWLMHB-UHFFFAOYSA-N,CCOC(=O)N(CC)c1ccccc1,0.86739947610,0.00000000000,1,G1,193.24600,2.66940,56.48400,14,2,0,3,3,76,1,0,0,1,29.54,84.29101469123,2.76846030935,284.59882253390
A-3021,4-(4-hydroxybenzenesulfonyl)phenol,"InChI=1S/C12H10O4S/c13-9-1-5-11(6-2-9)17(15,16)12-7-3-10(14)4-8-12/h1-8,13-14H",VPWNQTHUCYMVMZ-UHFFFAOYSA-N,Oc1ccc(cc1)[S](=O)(=O)c2ccc(O)cc2,-2.35702478490,0.00000000000,1,G1,250.27500,1.93060,61.66540,17,4,2,5,2,88,2,0,0,2,74.60,98.70236321174,2.49612896719,561.06013418302
A-3024,"1-(2,4-dihydroxy-6-{[(2S,3R,4S,5S,6R)-3,4,5-trihydroxy-6-(hydroxymethyl)oxan-2-yl]oxy}phenyl)-3-(4-hydroxyphenyl)propan-1-one","InChI=1S/C21H24O10/c22-9-16-18(27)19(28)20(29)21(31-16)30-15-8-12(24)7-14(26)17(15)13(25)6-3-10-1-4-11(23)5-2-10/h1-2,4-5,7-8,16,18-24,26-29H,3,6,9H2/t16-,18-,19+,20-,21-/m1/s1",IOUVKUPGCMBWBT-QNDFHXLGSA-N,OC[C@H]1O[C@@H](Oc2cc(O)cc(O)c2C(=O)CCc3ccc(O)cc3)[C@H](O)[C@@H](O)[C@@H]1O,-2.63989767900,0.00000000000,1,G1,436.41300,-0.20240,104.92510,31,10,7,10,7,168,2,1,1,3,177.14,176.71539402603,1.81808717646,911.12162312768
A-3025,3-chloro-2-methylaniline,"InChI=1S/C7H8ClN/c1-5-6(8)3-2-4-7(5)9/h2-4H,9H2,1H3",ZUVPLKVDZNDZCM-UHFFFAOYSA-N,Cc1c(N)cccc1Cl,-2.15106632040,0.32660625690,2,G3,141.60100,2.23062,40.60140,9,1,1,2,0,48,1,0,0,1,26.02,59.43950215779,3.24783473374,199.90617759993
A-3027,2-phenylethyl acetate,"InChI=1S/C10H12O2/c1-9(11)12-8-7-10-5-3-2-4-6-10/h2-6H,7-8H2,1H3",MDHYEMXUFSJLGV-UHFFFAOYSA-N,CC(=O)OCCc1ccccc1,-2.23175744520,0.00000000000,1,G1,164.20400,1.79220,46.77900,12,2,0,2,3,64,1,0,0,1,26.30,72.16623890663,2.29057205624,241.27530899395
A-3028,5-(dithiolan-3-yl)valeric acid,"InChI=1S/C8H14O2S2/c9-8(10)4-2-1-3-7-5-6-11-12-7/h7H,1-6H2,(H,9,10)",AGBQKNBQESQNJD-UHFFFAOYSA-N,OC(=O)CCCCC1CCSS1,-2.37504733520,0.00000000000,1,G1,206.33200,2.78510,54.55780,12,3,1,4,5,70,0,1,1,1,37.30,80.88995266440,1.90892263435,143.99328661117
A-3029,2-(2-methylphenoxymethyl)oxirane,"InChI=1S/C10H12O2/c1-8-4-2-3-5-10(8)12-7-9-6-11-9/h2-5,9H,6-7H2,1H3",KFUSXMDYOPXKKT-UHFFFAOYSA-N,Cc1ccccc1OCC2CO2,-2.29110444620,0.00000000000,1,G1,164.20400,1.77262,46.41400,12,2,0,2,3,64,1,1,1,2,21.76,72.11243088257,1.96048041743,266.29601883866
A-3030,bis(trimethyl(tetradecyl)azanium) oxalate,"InChI=1S/2C17H38N.C2H2O4/c2*1-5-6-7-8-9-10-11-12-13-14-15-16-17-18(2,3)4;3-1(4)2(5)6/h2*5-17H2,1-4H3;(H,3,4)(H,5,6)/q2*+1;/p-2",XNYQOAOGCKKCNI-UHFFFAOYSA-L,CCCCCCCCCCCCCC[N+](C)(C)C.CCCCCCCCCCCCCC[N+](C)(C)C.[O-]C(=O)C([O-])=O,-2.89807099630,1.34805168185,2,G2,601.01400,7.27360,177.96880,42,4,0,6,26,254,0,0,0,0,80.26,263.37500935685,-0.00000060667,517.72610067360
A-3034,2-[4-(2-sulfoethyl)piperazin-1-yl]ethane-1-sulfonic acid,"InChI=1S/C8H18N2O6S2.Na/c11-17(12,13)7-5-9-1-2-10(4-3-9)6-8-18(14,15)16;/h1-8H2,(H,11,12,13)(H,14,15,16);/q;+1/p-1",OGGAIRCLBMGXCZ-UHFFFAOYSA-M,[Na+].O[S](=O)(=O)CCN1CCN(CC1)CC[S]([O-])(=O)=O,-2.74759394240,0.00000000000,1,G1,324.35600,-4.95900,63.85980,19,7,1,11,6,108,0,1,1,1,118.05,135.47835365828,0.00000324000,413.63083019118
A-3035,"5-chloro-1-(piperidin-4-yl)-2,3-dihydro-1H-1,3-benzodiazol-2-one","InChI=1S/C12H14ClN3O/c13-8-1-2-11-10(7-8)15-12(17)16(11)9-3-5-14-6-4-9/h1-2,7,9,14H,3-6H2,(H,15,17)/p+1",DOAYWDKFDPSTSV-UHFFFAOYSA-O,Clc1ccc2N(C3CC[NH2+]CC3)C(=O)Nc2c1,-2.66307586080,0.00000000000,1,G1,252.72500,0.88130,67.49910,17,2,2,5,1,90,2,1,1,3,54.40,103.58537746878,2.14120604737,595.30681534555
A-3043,"3,5,5-trimethylhexanal","InChI=1S/C9H18O/c1-8(5-6-10)7-9(2,3)4/h6,8H,5,7H2,1-4H3",WTPYRCJDOZVZON-UHFFFAOYSA-N,CC(CC=O)CC(C)(C)C,-2.67590659540,0.25942899108,3,G5,142.24200,2.64770,43.91700,10,1,0,1,3,60,0,0,0,0,17.07,63.82031004305,3.56439333269,99.78611874918
A-3047,"1,2-dichlorobenzene",InChI=1S/C6H4Cl2/c7-5-3-1-2-4-6(5)8/h1-4H,RFFLAFLAYFXFSW-UHFFFAOYSA-N,Clc1ccccc1Cl,-3.05338579980,0.07973576122,8,G5,147.00400,2.99340,36.46200,8,0,0,2,0,42,1,0,0,1,0.00,58.03793557326,3.13486151135,162.63833891467
A-3049,(E)-anethole,"InChI=1S/C10H12O/c1-3-4-9-5-7-10(11-2)8-6-9/h3-8H,1-2H3/b4-3+",RUVINXPYWBROJD-ONEGZZNKSA-N,COc1ccc(\C=C\C)cc1,-3.12553987690,0.00000000000,1,G1,148.20500,2.72830,47.70200,11,1,0,1,2,58,1,0,0,1,9.23,67.31511377441,2.82404173503,233.55461928815
A-3053,chromium(3+) ion trichloride,InChI=1S/3ClH.Cr/h3*1H;/q;;;+3/p-3,QSWDMMVNRMROPK-UHFFFAOYSA-K,[Cl-].[Cl-].[Cl-].[Cr+3],-3.19963178060,1.92254902000,2,G2,158.35500,-8.99050,0.00000,4,0,0,4,0,27,0,0,0,0,0.00,54.70127050954,0.00000000000,3.24511249784
A-3054,"4-(2-{2-amino-4-oxo-3H,4H,7H-pyrrolo[2,3-d]pyrimidin-5-yl}ethyl)benzoic acid","InChI=1S/C15H14N4O3/c16-15-18-12-11(13(20)19-15)10(7-17-12)6-3-8-1-4-9(5-2-8)14(21)22/h1-2,4-5,7H,3,6H2,(H,21,22)(H4,16,17,18,19,20)",AIZPFZIKHIJCQX-UHFFFAOYSA-N,NC1=Nc2[nH]cc(CCc3ccc(cc3)C(O)=O)c2C(=O)N1,-3.57428903650,1.49251504695,4,G4,298.30200,1.31680,81.93610,22,4,4,7,4,112,3,0,0,3,124.86,124.37061323269,1.82049446079,893.28671384092
A-3055,methane dimolybdenum,InChI=1S/CH4.2Mo/h1H4;;,JAGQSESDQXCFCH-UHFFFAOYSA-N,C.[Mo].[Mo],-3.42027544140,0.40922292265,2,G3,207.92300,0.63110,6.73100,3,0,0,2,0,20,0,0,0,0,0.00,49.51542721139,0.00000000000,2.75488750216
A-3060,sodium (2S)-1-hexadecanoyl-5-oxopyrrolidine-2-carboxylate,"InChI=1S/C21H37NO4.Na/c1-2-3-4-5-6-7-8-9-10-11-12-13-14-15-19(23)22-18(21(25)26)16-17-20(22)24;/h18H,2-17H2,1H3,(H,25,26);/q;+1/p-1/t18-;/m0./s1",YHJSWPBXHVITHU-FERBBOLQSA-M,[Na+].CCCCCCCCCCCCCCCC(=O)N1[C@@H](CCC1=O)C([O-])=O,-4.02231911780,0.00000000000,1,G1,389.51200,0.73920,100.19400,27,4,0,6,15,150,0,1,1,1,77.51,186.48429550748,0.00000675999,441.89754427105
A-3061,"ethyl N,N-diphenylcarbamate","InChI=1S/C15H15NO2/c1-2-18-15(17)16(13-9-5-3-6-10-13)14-11-7-4-8-12-14/h3-12H,2H2,1H3",HKTSLDUAGCAISP-UHFFFAOYSA-N,CCOC(=O)N(c1ccccc1)c2ccccc2,-3.96923955930,0.00000000000,1,G1,241.29000,3.98120,72.04500,18,2,0,3,3,92,2,0,0,2,29.54,106.61822466850,2.38460132635,456.91675548747
A-3064,dialuminum hexacalcium oxygen(-2) anion trisulfate,"InChI=1S/2Al.6Ca.3H2O4S.6O/c;;;;;;;;3*1-5(2,3)4;;;;;;/h;;;;;;;;3*(H2,1,2,3,4);;;;;;/q2*+3;6*+2;;;;6*-2/p-6",FRPRHMFFTRIJHL-UHFFFAOYSA-H,[O--].[O--].[O--].[O--].[O--].[O--].[Al+3].[Al+3].[Ca++].[Ca++].[Ca++].[Ca++].[Ca++].[Ca++].[O-][S]([O-])(=O)=O.[O-][S]([O-])(=O)=O.[O-][S]([O-])(=O)=O,-3.07422742620,0.00000000000,1,G1,678.61500,-7.77320,81.57480,29,12,0,29,0,144,0,0,0,0,411.78,367.60774666118,-0.00000000400,364.50160246347
A-3066,3-chloro-4-[(3-fluorophenyl)methoxy]aniline,"InChI=1S/C13H11ClFNO/c14-12-7-11(16)4-5-13(12)17-8-9-2-1-3-10(15)6-9/h1-7H,8,16H2",AYPFEYDGZDPAPE-UHFFFAOYSA-N,Nc1ccc(OCc2cccc(F)c2)c(Cl)c1,-4.69329233360,0.00000000000,1,G1,251.68800,3.64030,66.59640,17,2,1,4,3,88,2,0,0,2,35.25,103.77567699629,2.07094682697,530.57795385457
A-3067,"2-(4-bromo-3-hydroxyquinolin-2-yl)-2,3-dihydro-1H-indene-1,3-dione","InChI=1S/C18H10BrNO3/c19-14-11-7-3-4-8-12(11)20-15(18(14)23)13-16(21)9-5-1-2-6-10(9)17(13)22/h1-8,13,23H",DVBLPJWQXDCAKU-UHFFFAOYSA-N,Oc1c(Br)c2ccccc2nc1C3C(=O)c4ccccc4C3=O,-4.86709726640,0.00000000000,1,G1,368.18600,3.86570,88.95180,23,4,1,5,1,112,3,0,1,4,67.26,139.46363058583,1.96059153813,961.72329901607
A-3068,"2,6,10,15,19,23-hexamethyltetracosane","InChI=1S/C30H62/c1-25(2)15-11-19-29(7)23-13-21-27(5)17-9-10-18-28(6)22-14-24-30(8)20-12-16-26(3)4/h25-30H,9-24H2,1-8H3",PRAKJMSDJKAYCZ-UHFFFAOYSA-N,CC(C)CCCC(C)CCCC(C)CCCCC(C)CCCC(C)CCCC(C)C,-5.14904042990,0.32037878944,3,G5,422.82600,11.08440,140.20400,30,0,0,0,21,182,0,0,0,0,0.00,193.32257234533,3.53656201016,307.94747320502
A-3072,calcium dioxido-oxotin,InChI=1S/Ca.3O.Sn/q+2;;2*-1;,HNQGTZYKXIXXST-UHFFFAOYSA-N,[Ca++].[O-][Sn]([O-])=O,-5.61655112810,0.00000000000,1,G1,206.78600,-3.25840,12.19450,5,3,0,5,0,24,0,0,0,0,63.19,67.20750573335,0.00000000000,29.87430298093
A-3073,octadec-2-enylsuccinic acid,"InChI=1S/C22H40O4/c1-2-3-4-5-6-7-8-9-10-11-12-13-14-15-16-17-18-20(22(25)26)19-21(23)24/h16-17,20H,2-15,18-19H2,1H3,(H,23,24)(H,25,26)/b17-16+",OVQJAEGJPUEXQD-WUKNDPDISA-N,CCCCCCCCCCCCCCC/C=C/CC(CC(O)=O)C(O)=O,-6.96444585120,0.77047740445,2,G2,368.55800,6.58950,107.44760,26,2,2,4,19,152,0,0,0,0,74.60,159.62494410245,3.36947408390,376.33853716549
A-3074,"3-[2-(hexadecyloxy)phenyl]-3-oxo-N-(4-phenyl-1,3-thiazol-2-yl)propanamide","InChI=1S/C34H46N2O3S/c1-2-3-4-5-6-7-8-9-10-11-12-13-14-20-25-39-32-24-19-18-23-29(32)31(37)26-33(38)36-34-35-30(27-40-34)28-21-16-15-17-22-28/h15-19,21-24,27H,2-14,20,25-26H2,1H3,(H,35,36,38)",SSGFKDXGKBJUNX-UHFFFAOYSA-N,CCCCCCCCCCCCCCCCOc1ccccc1C(=O)CC(=O)Nc2scc(n2)c3ccccc3,-4.84727953480,0.00000000000,1,G1,562.82000,9.88170,167.37620,40,5,1,6,21,216,3,0,0,3,68.29,244.32595456972,1.28080314090,1128.98019851755
A-3075,2-isopropoxyethyl acetate,"InChI=1S/C7H14O3/c1-6(2)9-4-5-10-7(3)8/h6H,4-5H2,1-3H3",HCDJVEYJSSTYSW-UHFFFAOYSA-N,CC(C)OCCOC(C)=O,-0.16577524160,0.00000000000,1,G1,146.18600,0.97450,37.72100,10,3,0,3,4,60,0,0,0,0,35.53,61.31751627327,2.98069222968,99.02434166398
A-3076,triammonium hexachlororhodate,InChI=1S/6ClH.3H3N.Rh/h6*1H;3*1H3;/q;;;;;;;;;+3/p-3,OJNYBYILSUWBHM-UHFFFAOYSA-K,[NH4+].[NH4+].[NH4+].[Cl-].[Cl-].[Cl-].[Cl-].[Cl-].[Cl-].[Rh+3],-0.56876707020,0.00000000000,1,G1,369.74100,-16.84990,17.95440,10,0,3,10,0,78,0,0,0,0,109.50,111.57761640960,0.00000000000,12.95461844238
A-3077,"2,2,4-trimethylhexanedioic acid; 2,4,4-trimethylhexanedioic acid","InChI=1S/C9H16O4/c1-6(4-7(10)11)5-9(2,3)8(12)13/h6H,4-5H2,1-3H3,(H,10,11)(H,12,13)",DWFUTNJGNBYHNN-UHFFFAOYSA-N,CC(CC(O)=O)CC(C)(C)C(O)=O,-0.27903749660,0.00000000000,1,G1,188.22300,1.59810,47.45060,13,2,2,4,5,76,0,0,0,0,74.60,77.57029964748,4.11109098452,207.66024130148
A-3078,2-hydroxy-5-sulfobenzoic acid,"InChI=1S/C7H6O6S/c8-6-2-1-4(14(11,12)13)3-5(6)7(9)10/h1-3,8H,(H,9,10)(H,11,12,13)",YCPXWRQRBFJBPZ-UHFFFAOYSA-N,OC(=O)c1cc(ccc1O)[S](O)(=O)=O,0.65549027220,0.00000000000,1,G1,218.18600,0.33710,44.88070,14,4,3,7,2,76,1,0,0,1,111.90,79.17497084837,3.41653337616,474.95342900048
A-3079,morpholin-4-ium sulfamate,"InChI=1S/C4H9NO.H3NO3S/c1-3-6-4-2-5-1;1-5(2,3)4/h5H,1-4H2;(H3,1,2,3,4)",PHUIJNUKWTUKLJ-UHFFFAOYSA-N,N[S](O)(=O)=O.C1COCCN1,0.72788601500,0.00000000000,1,G1,184.21700,-1.64590,39.42470,11,4,3,7,0,68,0,1,1,1,101.65,65.60138900182,0.00000018667,155.02130455739
A-3080,potassium fluoride,InChI=1S/FH.K/h1H;/q;+1/p-1,NROKBHXJSPEDAR-UHFFFAOYSA-M,[F-].[K+],1.22840728630,0.00000000000,1,G1,58.09600,-5.99200,0.00000,2,0,0,2,0,8,0,0,0,0,0.00,55.01970541967,0.00000000000,2.00000000000
A-3081,1-(2-hydroxyethyl)imidazolidin-2-one,"InChI=1S/C5H10N2O2/c8-4-3-7-2-1-6-5(7)9/h8H,1-4H2,(H,6,9)",HBAIZGPCSAAFSU-UHFFFAOYSA-N,OCCN1CCNC1=O,0.87767732610,0.00000000000,1,G1,130.14700,-0.99610,32.05750,9,2,2,4,2,52,0,1,1,1,52.57,53.45864003794,2.30979181472,115.52562235616
A-3082,"4-(2-hydroxyethoxy)benzene-1,3-diaminium sulfate","InChI=1S/C8H12N2O2/c9-6-1-2-8(7(10)5-6)12-4-3-11/h1-2,5,11H,3-4,9-10H2",WCPGNFONICRLCL-UHFFFAOYSA-N,Nc1ccc(OCCO)c(N)c1,-0.23370417550,0.00000000000,1,G1,168.19600,0.22210,47.84760,12,4,3,4,3,66,1,0,0,1,81.50,70.74884772402,2.72233469682,263.23481493850
A-3083,2-methylprop-2-enoic acid,"InChI=1S/C4H6O2/c1-3(2)4(5)6/h1H2,2H3,(H,5,6)",CERQOIWHTDAKMF-UHFFFAOYSA-N,CC(=C)C(O)=O,0.05627336790,0.02093668395,2,G3,86.09000,0.64710,22.44980,6,1,1,2,1,34,0,0,0,0,37.30,36.10023019107,3.56770345504,71.54887502163
A-3084,2-methylprop-2-enoyl 2-methylprop-2-enoate,"InChI=1S/C8H10O3/c1-5(2)7(9)11-8(10)6(3)4/h1,3H2,2,4H3",DCUFMVPCXCSVNP-UHFFFAOYSA-N,CC(=C)C(=O)OC(=O)C(C)=C,-0.19675971160,0.00000000000,1,G1,154.16500,1.20840,40.72700,11,3,0,3,2,60,0,0,0,0,43.37,65.35122919383,4.06930705773,201.49166979158
A-3086,tetraethylazanium benzoate,"InChI=1S/C8H20N.C7H6O2/c1-5-9(6-2,7-3)8-4;8-7(9)6-4-2-1-3-5-6/h5-8H2,1-4H3;1-5H,(H,8,9)/q+1;/p-1",CIFIGXMZHITUAZ-UHFFFAOYSA-M,CC[N+](CC)(CC)CC.[O-]C(=O)c1ccccc1,0.58331284200,0.00000000000,1,G1,251.37000,1.93290,73.19690,18,2,0,3,5,102,1,0,0,1,40.13,110.64727431163,0.00000032111,314.09687999353
A-3087,sodium cyanate,InChI=1S/CHNO.Na/c2-1-3;/h3H;/q;+1/p-1,ZVCDLGYNFYZZOK-UHFFFAOYSA-M,[Na+].[O-]C#N,0.17111690960,0.00000000000,1,G1,65.00700,-4.16822,5.61300,4,2,0,3,0,16,0,0,0,0,46.85,46.33946408421,0.00000000000,29.50977500433
A-3088,sodium hydrogen carbonate,"InChI=1S/CH2O3.Na/c2-1(3)4;/h(H2,2,3,4);/q;+1/p-1",UIIMBOGNXHQVGW-UHFFFAOYSA-M,[Na+].OC([O-])=O,0.05796092710,0.02884874695,3,G5,84.00600,-4.10830,8.02480,5,2,1,4,0,24,0,0,0,0,60.36,50.90264025498,0.00000000000,29.87430298093
A-3089,2-[(2-hydroxyethyl)amino]ethan-1-ol,"InChI=1S/C4H11NO2/c6-3-1-5-2-4-7/h5-7H,1-4H2",ZBCBWPMODOFKDW-UHFFFAOYSA-N,OCCNCCO,0.95779279410,0.01020360295,2,G3,105.13700,-1.43940,27.04130,7,3,3,3,4,44,0,0,0,0,52.49,42.97240705902,2.44747288788,28.87076540328
A-3091,2-(2-{2-[2-(prop-2-enoyloxy)ethoxy]ethoxy}ethoxy)ethyl prop-2-enoate,"InChI=1S/C14H22O7/c1-3-13(15)20-11-9-18-7-5-17-6-8-19-10-12-21-14(16)4-2/h3-4H,1-2,5-12H2",HCLJOFJIQIJXHS-UHFFFAOYSA-N,C=CC(=O)OCCOCCOCCOCCOC(=O)C=C,-0.50001329620,0.00000000000,1,G1,302.32300,0.49460,74.76900,21,7,0,7,14,120,0,0,0,0,80.29,123.99506279824,3.08712418007,284.44438375913
A-3093,"hydrogen 3,6-bis(diethylamino)-9-(2,4-disulphonatophenyl)xanthylium, sodium salt","InChI=1S/C29H34N2O7S2.Na/c1-7-30(8-2)24-16-26-22(13-18(24)5)29(21-12-11-20(39(32,33)34)15-28(21)40(35,36)37)23-14-19(6)25(17-27(23)38-26)31(9-3)10-4;/h11-17H,7-10H2,1-6H3,(H-,32,33,34,35,36,37);/q;+1/p-1",XJENLUNLXRJLEZ-UHFFFAOYSA-M,[Na+].CCN(CC)c1cc2[o+]c3cc(N(CC)CC)c(C)cc3c(c2cc1C)c4ccc(cc4[S]([O-])(=O)=O)[S]([O-])(=O)=O,-0.80532038970,0.00000000000,1,G1,608.71400,2.65554,156.08540,41,8,0,12,9,214,4,0,0,4,132.18,263.49640334021,0.00000462249,1758.05701716226
A-3097,sodium bromide,InChI=1S/BrH.Na/h1H;/q;+1/p-1,JHJLBTNAGRQEKS-UHFFFAOYSA-M,[Na+].[Br-],0.96350108570,0.00000000000,1,G1,102.89400,-5.99200,0.00000,2,0,0,2,0,8,0,0,0,0,0.00,46.29457949506,0.00000000000,2.00000000000
A-3098,1-methoxy-2-(2-methoxyethoxy)ethane,"InChI=1S/C6H14O3/c1-7-3-5-9-6-4-8-2/h3-6H2,1-2H3",SBZXBUIDTXKZTM-UHFFFAOYSA-N,COCCOCCOC,0.84545624960,0.01342187520,2,G3,134.17500,0.29580,34.57100,9,3,0,3,6,56,0,0,0,0,27.69,55.90459728833,2.59508270679,41.56763141530