ID,Name,InChI,InChIKey,SMILES,Solubility,SD,Ocurrences,Group,MolWt,MolLogP,MolMR,HeavyAtomCount,NumHAcceptors,NumHDonors,NumHeteroatoms,NumRotatableBonds,NumValenceElectrons,NumAromaticRings,NumSaturatedRings,NumAliphaticRings,RingCount,TPSA,LabuteASA,BalabanJ,BertzCT
A-3215,potassium 4-(acetoacetylamino)benzenesulfonate,"InChI=1S/C10H11NO5S.K/c1-7(12)6-10(13)11-8-2-4-9(5-3-8)17(14,15)16;/h2-5H,6H2,1H3,(H,11,13)(H,14,15,16);/q;+1/p-1",FNLKZYBTJKUMQM-UHFFFAOYSA-M,[K+].CC(=O)CC(=O)Nc1ccc(cc1)[S]([O-])(=O)=O,0.42174733450,0.00000000000,1,G1,295.35700,-2.48770,58.33290,18,5,1,8,4,92,1,0,0,1,103.37,147.31527866618,0.00000289000,537.89139604653
A-3216,"(5R)-5-[(1S)-1,2-dihydroxyethyl]-4-ethoxy-3-hydroxy-5H-furan-2-one","InChI=1S/C8H12O6/c1-2-13-7-5(11)8(12)14-6(7)4(10)3-9/h4,6,9-11H,2-3H2,1H3/t4-,6+/m0/s1",ZGSCRDSBTNQPMS-UJURSFKZSA-N,CCOC1=C(O)C(=O)O[C@@H]1[C@@H](O)CO,0.58097065160,0.06626078350,3,G5,204.17800,-0.92890,44.25340,14,6,3,6,4,80,0,0,1,1,96.22,80.36972545854,2.83906727642,258.55711902131
A-3217,tetrasodium (1-hydroxy-1-phosphonatoethyl)phosphonate,"InChI=1S/C2H8O7P2.4Na/c1-2(3,10(4,5)6)11(7,8)9;;;;/h3H,1H3,(H2,4,5,6)(H2,7,8,9);;;;/q;4*+1/p-4",KWXLCDNSEHTOCB-UHFFFAOYSA-J,[Na+].[Na+].[Na+].[Na+].CC(O)([P]([O-])([O-])=O)[P]([O-])([O-])=O,0.42046010900,0.00000000000,1,G1,293.95500,-15.50420,25.83680,15,7,1,13,2,68,0,0,0,0,146.61,175.65484122675,-0.00000008333,219.37473982306
A-3218,"1,4-dimethyl (2Z)-but-2-enedioate","InChI=1S/C6H8O4/c1-9-5(7)3-4-6(8)10-2/h3-4H,1-2H3/b4-3-",LDCRTTXIJACKKU-ARJAWSKDSA-N,COC(=O)\C=C/C(=O)OC,-0.26720487590,0.03269165171,3,G5,144.12600,-0.11140,33.17200,10,4,0,4,2,56,0,0,0,0,52.60,58.42449322673,3.75260308648,141.13075145540
A-3219,"2-methylbenzene-1,4-diol","InChI=1S/C7H8O2/c1-5-4-6(8)2-3-7(5)9/h2-4,8-9H,1H3",CNHDIAIOKMXOLK-UHFFFAOYSA-N,Cc1cc(O)ccc1O,-0.20741751740,0.00000000000,1,G1,124.13900,1.40622,34.50860,9,2,2,2,0,48,1,0,0,1,40.46,53.38481273829,3.17167803044,218.15617759993
A-3220,"1,3-dimethylurea","InChI=1S/C3H8N2O/c1-4-3(6)5-2/h1-2H3,(H2,4,5,6)",MGJKQDOBUOMPEZ-UHFFFAOYSA-N,CNC(=O)NC,0.93863623390,0.00000000000,1,G1,88.11000,-0.45480,23.51540,6,1,2,3,0,36,0,0,0,0,41.13,36.73038172388,2.98816088213,46.75488750216
A-3222,tetraazanium dioxido-dioxomolybdenum,InChI=1S/2Mo.4H3N.8O/h;;4*1H3;;;;;;;;/q;;;;;;;;;;4*-1/p+4,NZRDUKISIQWGIN-UHFFFAOYSA-R,[NH4+].[NH4+].[NH4+].[NH4+].[O-][Mo]([O-])(=O)=O.[O-][Mo]([O-])(=O)=O,-2.58047986220,0.00000000000,1,G1,392.02800,-3.73140,26.68520,14,8,4,14,0,96,0,0,0,0,306.52,86.71645781760,-0.00000001778,215.71640464532
A-3223,sodium 3-[(2-carboxyethyl)(2-ethylhexyl)amino]propanoate,"InChI=1S/C14H27NO4.Na/c1-3-5-6-12(4-2)11-15(9-7-13(16)17)10-8-14(18)19;/h12H,3-11H2,1-2H3,(H,16,17)(H,18,19);/q;+1/p-1",WVQFKDGIJVWORA-UHFFFAOYSA-M,[Na+].CCCCC(CC)CN(CCC(O)=O)CCC([O-])=O,0.41046926490,0.00000000000,1,G1,295.35500,-1.87650,71.62280,20,4,1,6,12,112,0,0,0,0,80.67,143.56824351238,0.00000000000,255.89951810577
A-3227,copper(2+) diacetate,"InChI=1S/2C2H4O2.Cu/c2*1-2(3)4;/h2*1H3,(H,3,4);/q;;+2/p-2",OPQARKPSCNTWTJ-UHFFFAOYSA-L,[Cu++].CC([O-])=O.CC([O-])=O,-0.37553571210,0.00000000000,1,G1,181.63400,-2.49010,21.36200,9,4,0,5,0,57,0,0,0,0,80.26,63.34704050125,-0.00000007200,70.56842503029
A-3230,"N,N-dimethylmethanaminium chloride",InChI=1S/C3H9N.ClH/c1-4(2)3;/h1-3H3;1H,SZYJELPVAFJOGJ-UHFFFAOYSA-N,[H+].[Cl-].CN(C)C,0.89933398710,0.00000000000,1,G1,95.57300,-2.70570,20.72300,5,1,0,2,0,34,0,0,0,0,3.24,40.86686054887,-0.00000004500,15.50977500433
A-3232,"N-methylmethanaminium (2,4-dichlorophenoxy)acetate","InChI=1S/C8H6Cl2O3.C2H7N/c9-5-1-2-7(6(10)3-5)13-4-8(11)12;1-3-2/h1-3H,4H2,(H,11,12);3H,1-2H3",IUQJDHJVPLLKFL-UHFFFAOYSA-N,CNC.OC(=O)COc1ccc(Cl)cc1Cl,0.44997722090,0.00000000000,1,G1,266.12400,2.29240,64.57650,16,3,2,6,3,90,1,0,0,1,58.56,104.12269844973,0.00000067308,344.83606869731
A-3233,methyl 3-methoxypropanoate,"InChI=1S/C5H10O3/c1-7-4-3-5(6)8-2/h3-4H2,1-2H3",BDJSOPWXYLFTNW-UHFFFAOYSA-N,COCCC(=O)OC,0.80269370670,0.00000000000,1,G1,118.13200,0.19590,28.50900,8,3,0,3,3,48,0,0,0,0,35.53,48.58763204447,2.98859864797,70.07403392115
A-3234,potassium cyanate,InChI=1S/CHNO.K/c2-1-3;/h3H;/q;+1/p-1,GKKCIDNWFBPDBW-UHFFFAOYSA-M,[K+].[O-]C#N,0.96596009090,0.00000000000,1,G1,81.11500,-4.16822,5.61300,4,2,0,3,0,16,0,0,0,0,46.85,66.84862915686,0.00000000000,29.50977500433
A-3235,4-(vinyloxy)butan-1-ol,"InChI=1S/C6H12O2/c1-2-8-6-4-3-5-7/h2,7H,1,3-6H2",HMBNQNDUEFFFNZ-UHFFFAOYSA-N,OCCCCOC=C,-0.18999534000,0.00000000000,1,G1,116.16000,0.91900,32.46880,8,2,1,2,5,48,0,0,0,0,29.46,49.78213754933,2.61629309042,52.49022499567
A-3236,potassium phosphinate,"InChI=1S/K.HO2P/c;1-3-2/h;(H,1,2)/q+1;/p-1",CRGPNLUFHHUKCM-UHFFFAOYSA-M,[K+].[O-]P=O,0.86267482080,0.00000000000,1,G1,102.07000,-3.44260,7.60650,4,2,0,4,0,18,0,0,0,0,40.13,68.29758736022,0.00000000000,13.50977500433
A-3237,sodium phosphinate,"InChI=1S/Na.HO2P.H2O/c;1-3-2;/h;(H,1,2);1H2/q+1;;/p-1",ACUGTEHQOFWBES-UHFFFAOYSA-M,O.[Na+].[O-]P=O,0.85463565280,0.00000000000,1,G1,103.97700,-4.26730,11.22030,5,2,0,5,0,26,0,0,0,0,71.63,53.26917571598,-0.00000002000,14.36452797660
A-3238,2-(butoxymethyl)oxirane; propan-2-amine; trifluoroborane,"InChI=1S/C7H14O2.C3H9N.BF3/c1-2-3-4-8-5-7-6-9-7;1-3(2)4;2-1(3)4/h7H,2-6H2,1H3;3H,4H2,1-2H3;",CXWVMBGMGJTKRX-UHFFFAOYSA-N,CCCCOCC1CO1.CC(C)N.FB(F)F,-0.53795424980,0.00000000000,1,G1,257.10500,2.43520,63.86840,17,3,1,7,5,104,0,1,1,1,47.78,102.06362749048,0.00000000000,138.00292484589
A-3239,benzyltriphenylphosphanium chloride,"InChI=1S/C25H22P.ClH/c1-5-13-22(14-6-1)21-26(23-15-7-2-8-16-23,24-17-9-3-10-18-24)25-19-11-4-12-20-25;/h1-20H,21H2;1H/q+1;/p-1",USFRYJRPHFMVBZ-UHFFFAOYSA-M,[Cl-].C(c1ccccc1)[P+](c2ccccc2)(c3ccccc3)c4ccccc4,-0.71882456070,0.00000000000,1,G1,388.87800,2.18470,115.29400,27,0,0,2,5,134,4,0,0,4,0.00,168.20530156500,0.00000210250,841.80000830849
A-3240,"sodium 1,4-bis(cyclohexyloxy)-1,4-dioxobutane-2-sulfonate","InChI=1S/C16H26O7S.Na/c17-15(22-12-7-3-1-4-8-12)11-14(24(19,20)21)16(18)23-13-9-5-2-6-10-13;/h12-14H,1-11H2,(H,19,20,21);/q;+1/p-1",UELAIMNOXLAYRW-UHFFFAOYSA-M,[Na+].[O-][S](=O)(=O)C(CC(=O)OC1CCCCC1)C(=O)OC2CCCCC2,-0.71470159740,0.00000000000,1,G1,384.42600,-0.95390,84.03220,25,7,0,9,6,138,0,2,2,2,109.80,170.79389072857,0.00000312500,536.68648501326
A-3241,"2-[2-[4-[(2-cyanoethyl)methylamino]phenyl]vinyl]-1,3,3-trimethyl-3H-indolium hydrogen sulphate","InChI=1S/C23H26N3.H2O4S/c1-23(2)20-8-5-6-9-21(20)26(4)22(23)15-12-18-10-13-19(14-11-18)25(3)17-7-16-24;1-5(2,3)4/h5-6,8-15H,7,17H2,1-4H3;(H2,1,2,3,4)/q+1;/p-2",SMCZLJWHBOXGOO-UHFFFAOYSA-L,CN(CCC#N)c1ccc(cc1)C=CC2=[N+](C)c3ccccc3C2(C)C.[O-][S]([O-])(=O)=O,-0.77417206860,0.00000000000,1,G1,440.54500,3.41788,119.77000,31,6,0,8,5,164,2,0,1,3,110.30,183.70283851416,0.00000061374,1120.15671223133
A-3246,disodium [(sulfonoperoxoato sulfato)oxy]sulfonoperoxoate,"InChI=1S/2Na.H2O8S2/c;;1-9(2,3)7-8-10(4,5)6/h;;(H,1,2,3)(H,4,5,6)/q2*+1;/p-2",CHQMHPLRPQMAMX-UHFFFAOYSA-L,[Na+].[Na+].[O-][S](=O)(=O)OO[S]([O-])(=O)=O,0.48655252090,0.00000000000,1,G1,238.10600,-8.13700,21.56440,12,8,0,12,3,62,0,0,0,0,132.86,113.03277370581,-0.00000040500,251.01955000865
A-3247,sodium 4-{5-hydroxy-3-methyl-4-[(E)-2-[4-methyl-3-(phenylsulfamoyl)phenyl]diazen-1-yl]-1H-pyrazol-1-yl}benzene-1-sulfonate,"InChI=1S/C23H21N5O6S2.Na/c1-15-8-9-18(14-21(15)35(30,31)27-17-6-4-3-5-7-17)24-25-22-16(2)26-28(23(22)29)19-10-12-20(13-11-19)36(32,33)34;/h3-14,22,27H,1-2H3,(H,32,33,34);/q;+1/p-1",WYLWMAWLDZBLRN-UHFFFAOYSA-M,[Na+].CC1=NN(C(=O)C1N=Nc2ccc(C)c(c2)[S](=O)(=O)Nc3ccccc3)c4ccc(cc4)[S]([O-])(=O)=O,-0.87255236850,0.00000000000,1,G1,549.56600,0.57892,131.73370,37,9,1,14,7,186,3,0,1,4,160.76,235.95073677969,0.00000380249,1592.27507684949
A-3249,acrylic acid,"InChI=1S/C3H4O2/c1-2-3(4)5/h2H,1H2,(H,4,5)",NIXOWILDQLNWCW-UHFFFAOYSA-N,OC(=O)C=C,0.00596732990,0.56816016610,2,G2,72.06300,0.25700,17.83280,5,1,1,2,1,28,0,0,0,0,37.30,29.73528807668,3.20480541789,55.91340299823
A-3250,methanamine,"InChI=1S/CH5N/c1-2/h2H2,1H3",BAVYZALUXZFZLV-UHFFFAOYSA-N,CN,1.36864347820,0.08632826090,2,G3,31.05800,-0.42510,10.11140,2,1,1,1,0,14,0,0,0,0,26.02,14.07914172484,1.00000000000,2.00000000000
A-3254,iron(3+) ion sodium 2-({2-[bis(carboxylatomethyl)amino]ethyl}(carboxylatomethyl)amino)acetate,"InChI=1S/C10H16N2O8.Fe.Na/c13-7(14)3-11(4-8(15)16)1-2-12(5-9(17)18)6-10(19)20;;/h1-6H2,(H,13,14)(H,15,16)(H,17,18)(H,19,20);;/q;+3;+1/p-4",MKWYFZFMAMBPQK-UHFFFAOYSA-J,[Na+].[Fe+3].[O-]C(=O)CN(CCN(CC([O-])=O)CC([O-])=O)CC([O-])=O,-0.70738918240,0.00000000000,1,G1,367.04700,-10.40850,52.90800,22,10,0,12,11,119,0,0,0,0,167.00,158.37544070170,-0.00000180500,327.12281476499
A-3256,Dihydrodicyclopentadienyl acrylate,"InChI=1S/C13H16O2/c1-2-12(14)15-11-6-5-10-8-3-4-9(7-8)13(10)11/h2,5-6,8-11,13H,1,3-4,7H2",ISRJTGUYHVPAOR-UHFFFAOYSA-N,C=CC(=O)OC1C=CC2C3CCC(C3)C12,-3.70814247150,0.00000000000,1,G1,204.26900,2.31630,57.02800,15,2,0,2,2,80,0,2,3,3,26.30,89.99692420518,1.74942472344,331.42765447595
A-3258,sodium prop-2-ene-1-sulfonate,"InChI=1S/C3H6O3S.Na/c1-2-3-7(4,5)6;/h2H,1,3H2,(H,4,5,6);/q;+1/p-1",DIKJULDDNQFCJG-UHFFFAOYSA-M,[Na+].[O-][S](=O)(=O)CC=C,0.69495286490,0.00000000000,1,G1,144.12700,-3.27840,24.76120,8,3,0,5,2,42,0,0,0,0,57.20,70.82156785719,0.00000000000,147.91147050653
A-3259,"tetrasodium 3-[(E)-2-(4-{[4-({4-[(E)-2-(4,8-disulfonatonaphthalen-2-yl)diazen-1-yl]-3-methylphenyl}amino)-6-[(2-hydroxyethyl)amino]-1,3,5-triazin-2-yl]amino}-2-methylphenyl)diazen-1-yl]naphthalene-1,5-disulfonate","InChI=1S/C39H34N10O13S4.4Na/c1-21-15-23(9-11-31(21)48-46-25-17-29-27(35(19-25)65(57,58)59)5-3-7-33(29)63(51,52)53)41-38-43-37(40-13-14-50)44-39(45-38)42-24-10-12-32(22(2)16-24)49-47-26-18-30-28(36(20-26)66(60,61)62)6-4-8-34(30)64(54,55)56;;;;/h3-12,15-20,50H,13-14H2,1-2H3,(H,51,52,53)(H,54,55,56)(H,57,58,59)(H,60,61,62)(H3,40,41,42,43,44,45);;;;/q;4*+1/p-4",YYRIJHSNZXZKJD-UHFFFAOYSA-J,[Na+].[Na+].[Na+].[Na+].Cc1cc(Nc2nc(NCCO)nc(Nc3ccc(N=Nc4cc5c(cccc5[S]([O-])(=O)=O)c(c4)[S]([O-])(=O)=O)c(C)c3)n2)ccc1N=Nc6cc7c(cccc7[S]([O-])(=O)=O)c(c6)[S]([O-])(=O)=O,-1.17487347190,0.00000000000,1,G1,1066.95400,-5.85056,232.42670,70,23,4,31,15,342,7,0,0,7,373.23,488.64733993066,0.00000324000,3423.68142218789
A-3261,"2-(6-methoxybenzofuran-2-yl)-1,3-dimethyl-5-(methylsulphonyl)1H-benzimidazolium acetate","InChI=1S/C19H20N2O4S.C2H4O2/c1-20-15-8-7-14(26(4,22)23)11-16(15)21(2)19(20)18-9-12-5-6-13(24-3)10-17(12)25-18;1-2(3)4/h5-11,19H,1-4H3;1H3,(H,3,4)",LFEGBBYAYJXRBY-UHFFFAOYSA-N,COc1ccc2cc(oc2c1)C3N(C)c4cc(ccc4[NH+]3C)[S](C)(=O)=O.CC([O-])=O,0.21257446860,0.00000000000,1,G1,432.49800,0.89590,110.68950,30,7,1,9,3,160,3,0,1,4,104.32,174.73345272609,0.00000058923,1197.42701089219
A-3262,2-[4-(2-hydroxyethyl)piperazin-1-yl]ethanesulfonic acid,"InChI=1S/C8H18N2O4S.Na/c11-7-5-9-1-3-10(4-2-9)6-8-15(12,13)14;/h11H,1-8H2,(H,12,13,14);/q;+1/p-1",RDZTWEVXRGYCFV-UHFFFAOYSA-M,[Na+].OCCN1CCN(CC1)CC[S]([O-])(=O)=O,0.43186667890,0.01637212665,2,G3,260.29100,-4.85450,54.53000,16,6,1,8,5,90,0,1,1,1,83.91,118.64395140043,0.00000225000,277.76289771740
A-3263,L-prolinamide,"InChI=1S/C5H10N2O/c6-5(8)4-2-1-3-7-4/h4,7H,1-3H2,(H2,6,8)/p+1/t4-/m0/s1",VLJNHYLEOZPXFW-BYPYZUCNSA-O,NC(=O)[C@@H]1CCC[NH2+]1,0.78535975750,0.00000000000,1,G1,115.15600,-1.80250,29.00880,8,1,2,3,1,46,0,1,1,1,59.70,48.24446331255,2.34993673878,96.60179219723
A-3264,"1,2,4-triazole","InChI=1S/C2H3N3/c1-3-2-5-4-1/h1-2H,(H,3,4,5)",NSPMIYGKQJPBQR-UHFFFAOYSA-N,[nH]1cncn1,1.00582744760,0.00911241010,2,G3,69.06700,-0.19530,16.38270,5,2,1,3,0,26,1,0,0,1,41.57,29.04831307081,3.12500000000,61.36993061053
A-3265,bromide,InChI=1S/BrH/h1H,CPELXLSAUQHCOX-UHFFFAOYSA-N,[H+].[Br-],1.37754437270,0.00000000000,1,G1,80.91200,-2.88350,1.11200,1,0,0,1,0,8,0,0,0,0,0.00,19.36597824185,0.00000000000,2.00000000000
A-3266,sodium formate,"InChI=1S/CH2O2.Na/c2-1-3;/h1H,(H,2,3);/q;+1/p-1",HLBBKKJFGFRGMU-UHFFFAOYSA-M,[Na+].[O-]C=O,1.01254442280,0.12853869870,7,G5,68.00700,-4.62990,6.06400,4,2,0,3,0,18,0,0,0,0,40.13,46.10840650278,0.00000000000,13.50977500433
A-3270,"benzene-1,4-diol","InChI=1S/C6H6O2/c7-5-1-2-6(8)4-3-5/h1-4,7-8H",QIGBRXMKCJKVMJ-UHFFFAOYSA-N,Oc1ccc(O)cc1,-0.19673661090,0.12973668876,6,G5,110.11200,1.09780,29.77160,8,2,2,2,0,42,1,0,0,1,40.46,47.01987062389,3.03245553203,145.38833891467
A-3273,"acid D,L-aspart","InChI=1S/C4H7NO4/c5-2(4(8)9)1-3(6)7/h2H,1,5H2,(H,6,7)(H,8,9)",CKLJMWTZIZZHCS-UHFFFAOYSA-N,NC(CC(O)=O)C(O)=O,-1.22931818740,0.35938414894,8,G5,133.10300,-1.12700,27.86400,9,3,3,5,3,52,0,0,0,0,100.62,51.08547977251,3.63243215194,132.52932501298
A-3274,ethyltriphenylphosphanium iodide,"InChI=1S/C20H20P.HI/c1-2-21(18-12-6-3-7-13-18,19-14-8-4-9-15-19)20-16-10-5-11-17-20;/h3-17H,2H2,1H3;1H/q+1;/p-1",SLAFUPJSGFVWPP-UHFFFAOYSA-M,[I-].CC[P+](c1ccccc1)(c2ccccc2)c3ccccc3,-1.72712819380,0.00000000000,1,G1,418.25800,1.00440,95.68900,22,0,0,2,4,112,3,0,0,3,0.00,150.50384863742,0.00000176333,584.00858329644
A-3275,ammonium trioxovanadate(1-),InChI=1S/V,LEONUFNNVUYDNQ-UHFFFAOYSA-N,[V],-0.81442495760,0.00000000000,1,G1,50.94200,-0.00250,0.00000,1,0,0,1,0,5,0,0,0,0,0.00,19.37662092103,0.00000000000,0.00000000000
A-3276,2-[(4-aminophenyl)amino]-5-nitrobenzene-1-sulfonic acid,"InChI=1S/C12H11N3O5S/c13-8-1-3-9(4-2-8)14-11-6-5-10(15(16)17)7-12(11)21(18,19)20/h1-7,14H,13H2,(H,18,19,20)",GSITZZUEHIPPMH-UHFFFAOYSA-N,Nc1ccc(Nc2ccc(cc2[S](O)(=O)=O)[N+]([O-])=O)cc1,-1.59828952970,0.00000000000,1,G1,309.30300,2.16730,77.04810,21,6,3,9,4,110,2,0,0,2,135.56,119.65986193872,2.47659121818,787.04023945569
A-3278,"1,3,3-trimethyl-2-[(E)-2-(1-methyl-2-phenyl-1H-indol-3-yl)ethenyl]-3H-indol-1-ium chloride","InChI=1S/C28H27N2.ClH/c1-28(2)23-15-9-11-17-25(23)29(3)26(28)19-18-22-21-14-8-10-16-24(21)30(4)27(22)20-12-6-5-7-13-20;/h5-19H,1-4H3;1H/q+1;/p-1",LORKUZBPMQEQET-UHFFFAOYSA-M,[Cl-].Cn1c2ccccc2c(C=CC3=[N+](C)c4ccccc4C3(C)C)c1c5ccccc5,-1.74392799600,0.00000000000,1,G1,426.99100,3.56870,127.70840,31,1,0,3,3,156,4,0,1,5,7.94,190.12887792543,0.00000231200,1323.89865943422
A-3279,"3,4-dihydro-2H-pyran","InChI=1S/C5H8O/c1-2-4-6-5-3-1/h2,4H,1,3,5H2",BUDQDWGNQVEFAC-UHFFFAOYSA-N,C1COC=CC1,-1.03839821310,0.00000000000,1,G1,84.11800,1.31050,24.32600,6,1,0,1,0,34,0,0,1,1,9.23,37.61713052921,2.25514472082,48.95878455585
A-3281,"octane-1,2-diol","InChI=1S/C8H18O2/c1-2-3-4-5-6-8(10)7-9/h8-10H,2-7H2,1H3",AEIJTFQOBWATKX-UHFFFAOYSA-N,CCCCCCC(O)CO,-1.28997521660,0.00000000000,1,G1,146.23000,1.31000,41.85160,10,2,2,2,6,62,0,0,0,0,40.46,62.88231333300,2.88616279762,64.27793097484
A-3284,ethylbis(propan-2-yl)amine,"InChI=1S/C8H19N/c1-6-9(7(2)3)8(4)5/h7-8H,6H2,1-5H3",JGFZNNIVVJXRND-UHFFFAOYSA-N,CCN(C(C)C)C(C)C,-1.24160226330,0.12369326059,3,G5,129.24700,2.12510,42.65200,9,1,0,1,3,56,0,0,0,0,3.24,59.05367949881,3.67761568191,58.96788691073
A-3289,"disodium 4,8-diamino-1,5-dihydroxy-9,10-dioxo-9,10-dihydroanthracene-2,6-disulfonate","InChI=1S/C14H10N2O10S2.Na/c15-3-1-5(27(21,22)23)11(17)9-7(3)13(19)10-8(14(9)20)4(16)2-6(12(10)18)28(24,25)26;/h1-2,17-18H,15-16H2,(H,21,22,23)(H,24,25,26);",CNFAVWPHWCKUOM-UHFFFAOYSA-N,[Na].Nc1cc(c(O)c2C(=O)c3c(N)cc(c(O)c3C(=O)c12)[S](O)(=O)=O)[S](O)(=O)=O,-1.79911261910,0.00000000000,1,G1,453.36200,-0.84980,97.28660,29,10,6,15,2,149,2,0,1,3,235.38,184.47451514212,0.00000300000,1229.64181788955
A-3290,"propan-2-yl 2,2,2-trifluoroacetate","InChI=1S/C5H7F3O2/c1-3(2)10-4(9)5(6,7)8/h3H,1-2H3",ASAXRKSDVDALDT-UHFFFAOYSA-N,CC(C)OC(=O)C(F)(F)F,-1.33607875300,0.07823663191,4,G5,156.10300,1.50030,27.28300,10,2,0,5,1,60,0,0,0,0,26.30,55.97069302375,3.86728078101,127.34497796795
A-3291,disodium 5-({4-[(2-bromoacryloyl)amino]-2-sulfonatophenyl}diazenyl)-4-hydroxy-6-(methylamino)naphthalene-2-sulfonate,"InChI=1S/C20H17BrN4O8S2.2Na/c1-10(21)20(27)23-12-4-6-14(17(8-12)35(31,32)33)24-25-19-15(22-2)5-3-11-7-13(34(28,29)30)9-16(26)18(11)19;;/h3-9,24-25H,1H2,2H3,(H,23,27)(H,28,29,30)(H,31,32,33);;/q;2*+1/p-2",IJUMYNZGVPFZDO-UHFFFAOYSA-L,[Na+].[Na+].CN=C1C=CC2=CC(=CC(=O)C2=C1NNc3ccc(NC(=O)C(Br)=C)cc3[S]([O-])(=O)=O)[S]([O-])(=O)=O,-1.94765320930,0.00000000000,1,G1,629.37800,-4.80480,128.25550,37,11,3,17,7,184,1,0,2,3,196.99,264.87062338122,0.00000342250,1545.33842770268
A-3292,sodium 3-[[4-[(2-ethoxy-5-methylphenyl)azo]-1-naphthyl]azo]benzenesulphonate,"InChI=1S/C25H22N4O4S.Na/c1-3-33-25-14-11-17(2)15-24(25)29-28-23-13-12-22(20-9-4-5-10-21(20)23)27-26-18-7-6-8-19(16-18)34(30,31)32;/h4-16H,3H2,1-2H3,(H,30,31,32);/q;+1/p-1",PHBKXNWUWOCVEI-UHFFFAOYSA-M,[Na+].CCOc1ccc(C)cc1N=Nc2ccc(N=Nc3cccc(c3)[S]([O-])(=O)=O)c4ccccc24,-1.84713554440,0.00000000000,1,G1,496.52400,4.28582,129.05320,35,8,0,10,7,172,4,0,0,4,115.87,225.37121895779,0.00000342249,1521.44332811799
A-3293,(2E)-but-2-enedioic acid,"InChI=1S/C4H4O4/c5-3(6)1-2-4(7)8/h1-2H,(H,5,6)(H,7,8)/b2-1+",VZCYOOQTPOCHFL-OWOJBTEDSA-N,OC(=O)\C=C\C(O)=O,-1.21962942770,2.89870015279,6,G4,116.07200,-0.28820,24.41160,8,2,2,4,2,44,0,0,0,0,74.60,45.05598604331,3.66862646193,118.97373660251
A-3294,1-[(2-hydroxypropyl)(4-methylphenyl)amino]propan-2-ol,"InChI=1S/C13H21NO2/c1-10-4-6-13(7-5-10)14(8-11(2)15)9-12(3)16/h4-7,11-12,15-16H,8-9H2,1-3H3",JFZVSHAMRZPOPA-UHFFFAOYSA-N,CC(O)CN(CC(C)O)c1ccc(C)cc1,-1.50382180020,0.00000000000,1,G1,223.31600,1.56302,66.75360,16,3,2,3,5,90,1,0,0,1,43.70,97.33429909487,2.78111271492,296.21356211445
A-3296,diethyl sulfate,"InChI=1S/C4H10O4S/c1-3-7-9(5,6)8-4-2/h3-4H2,1-2H3",DENRZWYUOJLTMF-UHFFFAOYSA-N,CCO[S](=O)(=O)OCC,-1.34294971850,0.00000000000,1,G1,154.18700,0.30420,32.17180,9,4,0,5,4,56,0,0,0,0,52.60,55.10457396394,3.73456281967,135.95057052384
A-3297,"sodium 1-amino-4-({4-[(N-methyl4-methylbenzenesulfonamido)methyl]phenyl}amino)-9,10-dioxo-9,10-dihydroanthracene-2-sulfonate","InChI=1S/C29H25N3O7S2.Na/c1-17-7-13-20(14-8-17)40(35,36)32(2)16-18-9-11-19(12-10-18)31-23-15-24(41(37,38)39)27(30)26-25(23)28(33)21-5-3-4-6-22(21)29(26)34;/h3-15,31H,16,30H2,1-2H3,(H,37,38,39);/q;+1/p-1",JOXJJQNGIBRWJT-UHFFFAOYSA-M,[Na+].CN(Cc1ccc(Nc2cc(c(N)c3C(=O)c4ccccc4C(=O)c23)[S]([O-])(=O)=O)cc1)[S](=O)(=O)c5ccc(C)cc5,-1.94282199080,0.00000000000,1,G1,613.64900,0.82502,151.68110,42,9,2,13,7,210,4,0,1,5,166.77,265.19700743222,0.00000404999,1942.66833815188
A-3299,potassium trifluoroacetate,"InChI=1S/C2HF3O2.K/c3-2(4,5)1(6)7;/h(H,6,7);/q;+1/p-1",CUNPJFGIODEJLQ-UHFFFAOYSA-M,[K+].[O-]C(=O)C(F)(F)F,0.66106930150,0.00000000000,1,G1,152.11200,-3.69740,11.06200,8,2,0,6,0,42,0,0,0,0,40.13,85.47911989861,0.00000000000,87.77443751082
A-3300,phosphorofluoridic acid,"InChI=1S/FH2O3P.2Na/c1-5(2,3)4;;/h(H2,2,3,4);;/q;2*+1/p-2",BFDWBSRJQZPEEB-UHFFFAOYSA-L,[Na+].[Na+].[O-][P]([O-])(F)=O,0.68440058740,0.00000000000,1,G1,143.94900,-7.20740,8.71450,7,3,0,7,0,32,0,0,0,0,63.19,84.54039226328,-0.00000008000,59.07049634350
A-3301,(1-hydroxy-1-phosphonoethyl)phosphonic acid,"InChI=1S/CH2O2/c2-1-3/h1H,(H,2,3)",BDAGIHXWWSANSR-UHFFFAOYSA-N,OC=O,1.17585529360,0.08057235320,2,G3,46.02500,-0.29920,8.69280,3,1,1,2,0,18,0,0,0,0,37.30,17.69500688007,2.18749609737,10.26466250649
A-3303,diammonium dihydrogen 2-({2-[bis(carboxylatomethyl)amino]ethyl}(carboxylatomethyl)amino)acetate,"InChI=1S/C10H16N2O8.2H3N/c13-7(14)3-11(4-8(15)16)1-2-12(5-9(17)18)6-10(19)20;;/h1-6H2,(H,13,14)(H,15,16)(H,17,18)(H,19,20);2*1H3",KYQODXQIAJFKPH-UHFFFAOYSA-N,[NH4+].[NH4+].OC(=O)CN(CCN(CC(O)=O)CC([O-])=O)CC([O-])=O,0.32269905620,0.00000000000,1,G1,326.30600,-3.98820,70.13520,22,8,4,12,11,130,0,0,0,0,234.34,125.63792153466,-0.00000180500,321.12281476499
A-3306,3-(dodecyldimethylazaniumyl)-2-hydroxypropane-1-sulfonate,"InChI=1S/C17H37NO4S/c1-4-5-6-7-8-9-10-11-12-13-14-18(2,3)15-17(19)16-23(20,21)22/h17,19H,4-16H2,1-3H3",DDGPBVIAYDDWDH-UHFFFAOYSA-N,CCCCCCCCCCCC[N+](C)(C)CC(O)C[S]([O-])(=O)=O,0.28651810430,0.00000000000,1,G1,351.55300,2.88980,94.25740,23,4,1,6,15,140,0,0,0,0,77.43,142.97099977721,3.62178566148,382.05460574460
A-3312,potassium bromide,InChI=1S/BrH.K/h1H;/q;+1/p-1,IOLCXVTUBQKXJR-UHFFFAOYSA-M,[K+].[Br-],0.75567543350,0.00000000000,1,G1,119.00200,-5.99200,0.00000,2,0,0,2,0,8,0,0,0,0,0.00,66.80374456771,0.00000000000,2.00000000000