ID,Name,InChI,InChIKey,SMILES,Solubility,SD,Ocurrences,Group,MolWt,MolLogP,MolMR,HeavyAtomCount,NumHAcceptors,NumHDonors,NumHeteroatoms,NumRotatableBonds,NumValenceElectrons,NumAromaticRings,NumSaturatedRings,NumAliphaticRings,RingCount,TPSA,LabuteASA,BalabanJ,BertzCT
A-461,Betamethasone,"InChI=1S/C22H29FO5/c1-12-8-16-15-5-4-13-9-14(25)6-7-19(13,2)21(15,23)17(26)10-20(16,3)22(12,28)18(27)11-24/h6-7,9,12,15-17,24,26,28H,4-5,8,10-11H2,1-3H3/t12-,15-,16-,17-,19-,20-,21-,22-/m0/s1",UREBDLICKHMUKA-DVTGEIKXSA-N,C[C@H]1C[C@H]2[C@@H]3CCC4=CC(=O)C=C[C@]4(C)[C@@]3(F)[C@@H](O)C[C@]2(C)[C@@]1(O)C(=O)CO,-3.77098150030,0.00000000000,1,G1,392.46700,1.89570,99.94440,28,5,3,6,2,154,0,3,4,4,94.83,163.87178561127,1.83769187947,804.74882548847
A-463,3-(4-isopropylphenyl)-2-methylpropanal,"InChI=1S/C13H18O/c1-10(2)12-4-6-13(7-5-12)11(3)8-9-14/h4-7,9-11H,8H2,1-3H3",HQQPOVNESMNPNH-UHFFFAOYSA-N,CC(C)c1ccc(cc1)C(C)CC=O,-3.45986290140,0.00000000000,1,G1,190.28600,3.50250,59.62700,14,1,0,1,4,76,1,0,0,1,17.07,86.14752002032,2.76853905178,284.60880203258
A-465,"(2,4,6-trimethylcyclohex-3-en-1-yl)methanol","InChI=1S/C10H18O/c1-7-4-8(2)10(6-11)9(3)5-7/h4,8-11H,5-6H2,1-3H3",DMXUBGVVJLVCPB-UHFFFAOYSA-N,CC1CC(=CC(C)C1CO)C,-2.37119739310,0.00000000000,1,G1,154.25300,2.21710,47.27780,11,1,1,1,1,64,0,0,1,1,20.23,69.12252962388,2.68656409608,160.25571236699
A-466,"3,7-dimethylnona-1,6-dien-3-ol","InChI=1S/C11H20O/c1-5-10(3)8-7-9-11(4,12)6-2/h6,8,12H,2,5,7,9H2,1,3-4H3/b10-8+",KRLBLPBPZSSIGH-CSKARUKUSA-N,CC/C(C)=C/CCC(C)(O)C=C,-2.40912866400,0.00000000000,1,G1,168.28000,3.05990,54.10280,12,1,1,1,5,70,0,0,0,0,20.23,75.80369985962,3.76510758131,165.84292599914
A-467,"tris(oxiran-2-ylmethyl) benzene-1,2,4-tricarboxylate","InChI=1S/C18H18O9/c19-16(25-7-11-4-22-11)10-1-2-14(17(20)26-8-12-5-23-12)15(3-10)18(21)27-9-13-6-24-13/h1-3,11-13H,4-9H2",YNOWBNNLZSSIHM-UHFFFAOYSA-N,O=C(OCC1CO1)c2ccc(C(=O)OCC3CO3)c(c2)C(=O)OCC4CO4,-2.76229647580,0.00000000000,1,G1,378.33300,0.35340,86.50950,27,9,0,9,9,144,1,3,3,4,116.49,153.95905270884,1.48411183792,747.19923506639
A-468,"2,4-dimethyl-4-phenyltetrahydrofuran","InChI=1S/C12H16O/c1-10-8-12(2,9-13-10)11-6-4-3-5-7-11/h3-7,10H,8-9H2,1-2H3",GPMLJOOQCIHFET-UHFFFAOYSA-N,CC1CC(C)(CO1)c2ccccc2,-2.43323794520,0.00000000000,1,G1,176.25900,2.75310,53.82500,13,1,0,1,1,70,1,1,1,2,9.23,79.72876988185,2.25763982238,280.43576775729
A-469,ethyl 2-ethylhexanoate,"InChI=1S/C10H20O2/c1-4-7-8-9(5-2)10(11)12-6-3/h9H,4-8H2,1-3H3",YXAGIRHBJJLWHW-UHFFFAOYSA-N,CCCCC(CC)C(=O)OCC,-3.42329125500,0.00000000000,1,G1,172.26800,2.76590,49.93900,12,2,0,2,6,72,0,0,0,0,26.30,75.29879738695,3.70670786212,121.00698692804
A-470,quinolin-8-ol,"InChI=1S/C9H7NO/c11-8-5-1-3-7-4-2-6-10-9(7)8/h1-6,11H",MCJGNVYPOGVAJF-UHFFFAOYSA-N,Oc1cccc2cccnc12,-2.34960525460,0.04084016069,3,G5,145.16100,1.94040,43.40780,11,2,1,2,0,54,2,0,0,2,33.12,64.12694938437,2.91316116360,378.72444633457
A-471,"trisodium (3Z)-7-({4-chloro-6-[ethyl({3-[2-(sulfonatooxy)ethanesulfonyl]phenyl})amino]-1,3,5-triazin-2-yl}amino)-3-[2-(4-methoxy-2-sulfonatophenyl)hydrazin-1-ylidene]-4-oxo-3,4-dihydronaphthalene-2-sulfonate","InChI=1S/C30H28ClN7O14S4.3Na/c1-3-38(19-5-4-6-21(15-19)53(40,41)12-11-52-56(48,49)50)30-34-28(31)33-29(35-30)32-18-7-9-22-17(13-18)14-25(55(45,46)47)26(27(22)39)37-36-23-10-8-20(51-2)16-24(23)54(42,43)44;;;/h4-10,13-16,36H,3,11-12H2,1-2H3,(H,42,43,44)(H,45,46,47)(H,48,49,50)(H,32,33,34,35);;;/q;3*+1/p-3/b37-26-;;;",FTXPZBYCIGOUHZ-WPJWCKLJSA-K,[Na+].[Na+].[Na+].CCN(c1cccc(c1)[S](=O)(=O)CCO[S]([O-])(=O)=O)c2nc(Cl)nc(Nc3ccc4C(=O)C(=N/Nc5ccc(OC)cc5[S]([O-])(=O)=O)\C(=Cc4c3)[S]([O-])(=O)=O)n2,-1.16167110760,0.14266750360,2,G3,940.25600,-6.84770,195.40530,59,21,2,29,15,298,4,0,1,5,319.60,409.22807900994,0.00000399999,2764.94091430133
A-472,zinc dihydroxide,InChI=1S/2H2O.Zn/h2*1H2;/q;;+2/p-2,UGZADUVQMDAIAO-UHFFFAOYSA-L,[OH-].[OH-].[Zn++],-2.18582885480,0.00000000000,1,G1,99.40400,-0.35610,3.87160,3,2,0,3,0,16,0,0,0,0,60.00,31.21331265930,0.00000000000,2.75488750216
A-475,"1,2-diethoxybenzene","InChI=1S/C10H14O2/c1-3-11-9-7-5-6-8-10(9)12-4-2/h5-8H,3-4H2,1-2H3",QZYDOKBVZJLQCK-UHFFFAOYSA-N,CCOc1ccccc1OCC,-2.41045076000,0.00000000000,1,G1,166.22000,2.48400,48.78000,12,2,0,2,4,66,1,0,0,1,18.46,73.11826203610,2.76500942366,208.03511805930
A-476,(2E)-but-2-ene,"InChI=1S/C4H8/c1-3-4-2/h3-4H,1-2H3/b4-3+",IAQRGUVFOMOMEM-ONEGZZNKSA-N,C\C=C\C,-1.93946507370,0.05056746315,2,G3,56.10800,1.58240,20.48800,4,0,0,0,0,24,0,0,0,0,0.00,27.14447433884,2.54919333848,15.21928094887
A-477,D-erythro-pentitol,"InChI=1S/C5H12O5/c6-1-3(8)5(10)4(9)2-7/h3-10H,1-2H2",HEBKCHPVOIAQTA-UHFFFAOYSA-N,OCC(O)C(O)C(O)CO,0.62527448910,0.00000000000,1,G1,152.14600,-2.94630,32.19200,10,5,5,5,4,62,0,0,0,0,101.15,58.17018824640,3.68540653401,76.10749561002
A-478,"2-methylbuta-1,3-diene","InChI=1S/C5H8/c1-4-5(2)3/h4H,1-2H2,3H3",RRHGJUQNOFWUDK-UHFFFAOYSA-N,CC(=C)C=C,-2.02573323570,0.00000000000,1,G1,68.11900,1.74850,25.01100,5,0,0,0,1,28,0,0,0,0,0.00,32.81981342105,3.20480541789,51.05865002596
A-481,"(Z)-N-(3-aminopropyl)-N'-[3-(9-octadecenylamino)propyl]propane-1,3-diamine","InChI=1S/C27H58N4/c1-2-3-4-5-6-7-8-9-10-11-12-13-14-15-16-17-22-29-24-19-26-31-27-20-25-30-23-18-21-28/h9-10,29-31H,2-8,11-28H2,1H3/b10-9+",XWNMFDCGCAFWHB-MDZDMXLPSA-N,CCCCCCCC/C=C/CCCCCCCCNCCCNCCCNCCCN,-3.83607575770,0.00000000000,1,G1,438.78900,5.92170,140.96650,31,4,4,4,27,186,0,0,0,0,62.11,195.52762021779,3.03881025402,333.19812306358
A-482,"3,7-dimethyloctan-1-ol","InChI=1S/C10H22O/c1-9(2)5-4-6-10(3)7-8-11/h9-11H,4-8H2,1-3H3",PRNCMAKCNVRZFX-UHFFFAOYSA-N,CC(C)CCCC(C)CCO,-3.39325978660,0.00000000000,1,G1,158.28500,2.83120,49.55580,11,1,1,1,6,68,0,0,0,0,20.23,70.81796380960,3.09962083049,78.94196246616
A-483,"disodium {1-ethyl-5-[(E)-2-(4-{4-[(E)-2-[1-ethyl-2-hydroxy-4-methyl-6-oxo-5-(sulfonatomethyl)-1,6-dihydropyridin-3-yl]diazen-1-yl]benzenesulfonyl}phenyl)diazen-1-yl]-6-hydroxy-4-methyl-2-oxo-1,2-dihydropyridin-3-yl}methanesulfonate","InChI=1S/C30H32N6O12S3.2Na/c1-5-35-27(37)23(15-49(41,42)43)17(3)25(29(35)39)33-31-19-7-11-21(12-8-19)51(47,48)22-13-9-20(10-14-22)32-34-26-18(4)24(16-50(44,45)46)28(38)36(6-2)30(26)40;;/h7-14,39-40H,5-6,15-16H2,1-4H3,(H,41,42,43)(H,44,45,46);;/q;2*+1/p-2",CMXLXDYHEIIMLD-UHFFFAOYSA-L,[Na+].[Na+].CCN1C(=C(N=Nc2ccc(cc2)[S](=O)(=O)c3ccc(cc3)N=NC4=C(O)N(CC)C(=O)C(=C4C)C[S]([O-])(=O)=O)C(=C(C[S]([O-])(=O)=O)C1=O)C)O,-2.10218737960,0.00000000000,1,G1,808.78100,-2.16016,179.04580,53,18,2,23,12,272,4,0,0,4,282.44,347.89599862870,0.00000485999,2366.92136750917
A-485,1-phenylethan-1-one,"InChI=1S/C8H8O/c1-7(9)8-5-3-2-4-6-8/h2-6H,1H3",KWOLFJPFCHCOCG-UHFFFAOYSA-N,CC(=O)c1ccccc1,-1.28038684030,0.05962319018,4,G5,120.15100,1.88920,36.44650,9,1,0,1,1,46,1,0,0,1,17.07,54.32280944833,2.98145461404,201.06743705866
A-487,(3E)-4-methyldec-3-en-5-ol,"InChI=1S/C11H22O/c1-4-6-7-9-11(12)10(3)8-5-2/h8,11-12H,4-7,9H2,1-3H3/b10-8+",WSTQLNQRVZNEDV-CSKARUKUSA-N,CCCCCC(O)C(/C)=C/CC,-3.43186389770,0.00000000000,1,G1,170.29600,3.28390,54.19680,12,1,1,1,6,72,0,0,0,0,20.23,76.49330289181,3.56102372214,126.96580220364
A-488,butyl butanoate,"InChI=1S/C8H16O2/c1-3-5-7-10-8(9)6-4-2/h3-7H2,1-2H3",XUPYJHCZDLZNFP-UHFFFAOYSA-N,CCCCOC(=O)CCC,-2.36104777910,0.04952611045,2,G3,144.21400,2.12980,40.77500,10,2,0,2,5,60,0,0,0,0,26.30,62.56891315816,3.05237518905,89.25838096618
A-491,"benzene-1,2-dicarboxylic acid","InChI=1S/C8H6O4/c9-7(10)5-3-1-2-4-6(5)8(11)12/h1-4H,(H,9,10)(H,11,12)",XNGIFLGASWRNHJ-UHFFFAOYSA-N,OC(=O)c1ccccc1C(O)=O,-1.42457327610,0.32986493253,8,G5,166.13200,1.08300,40.36060,12,2,2,4,2,62,1,0,0,1,74.60,68.07279905277,3.26707619570,296.58467465916
A-492,"octahydro-1H-4,7-methanoindene-1-carbaldehyde","InChI=1S/C11H16O/c12-6-9-3-4-10-7-1-2-8(5-7)11(9)10/h6-11H,1-5H2",USPJNXWHVJTDJW-UHFFFAOYSA-N,O=CC1CCC2C3CCC(C3)C12,-2.41996764730,0.00000000000,1,G1,164.24800,2.25760,46.59900,12,1,0,1,1,66,0,3,3,3,17.07,73.53270081125,1.88938909248,211.04965218227
A-493,"hydrogen peroxide - 1,2-diisopropylbenzene (1:1)","InChI=1S/C12H18.H2O2/c1-9(2)11-7-5-6-8-12(11)10(3)4;1-2/h5-10H,1-4H3;1-2H",SPTHWAJJMLCAQF-UHFFFAOYSA-N,CC(C)c1ccccc1C(C)C.OO,-2.49771358530,0.00000000000,1,G1,196.29000,3.95080,59.87760,14,2,2,2,2,80,1,0,0,1,40.46,86.14464977954,0.00000079083,227.25357133216
A-494,"2,6-dimethylphenol","InChI=1S/C8H10O/c1-6-4-3-5-7(2)8(6)9/h3-5,9H,1-2H3",NXXYKOUNUYWIHA-UHFFFAOYSA-N,Cc1cccc(C)c1O,-1.29239615800,0.12807099710,6,G5,122.16700,2.00904,37.58080,9,1,1,1,0,48,1,0,0,1,20.23,54.95552110049,3.24783473374,195.55766205434
A-495,RHENIUM,InChI=1S/Re,WUAPFZMCVAUBPE-UHFFFAOYSA-N,[Re],-0.47550795650,0.00000000000,1,G1,186.20700,-0.00250,0.00000,1,0,0,1,0,7,0,0,0,0,0.00,21.14774404498,0.00000000000,0.00000000000
A-496,1-phenylpropan-1-ol,"InChI=1S/C9H12O/c1-2-9(10)8-6-4-3-5-7-8/h3-7,9-10H,2H2,1H3",DYUQAZSOFZSPHD-UHFFFAOYSA-N,CCC(O)c1ccccc1,-2.34036759050,0.00000000000,1,G1,136.19400,2.13000,41.69280,10,1,1,1,2,54,1,0,0,1,20.23,61.32046321488,2.74697818853,181.17957141668
A-497,1-[3-(trifluoromethyl)phenyl]ethan-1-one,"InChI=1S/C9H7F3O/c1-6(13)7-3-2-4-8(5-7)9(10,11)12/h2-5H,1H3",ABXGMGUHGLQMAW-UHFFFAOYSA-N,CC(=O)c1cccc(c1)C(F)(F)F,-2.48210791670,0.00000000000,1,G1,188.14800,2.90800,41.44850,13,1,0,4,1,70,1,0,0,1,17.07,73.18435777151,3.13106379381,327.87685346687
A-498,"2,4-dichloroaniline","InChI=1S/C6H5Cl2N/c7-4-1-2-6(9)5(8)3-4/h1-3H,9H2",KQCMTOWTPBNWDB-UHFFFAOYSA-N,Nc1ccc(Cl)cc1Cl,-2.41717425780,0.06958958790,2,G3,162.01900,2.57560,40.87440,9,1,1,3,0,48,1,0,0,1,26.02,63.37782627027,3.17167803044,222.29788705001
A-499,"1,7,7-trimethylbicyclo[2.2.1]hept-2-yl acetate","InChI=1S/C12H20O2/c1-8(13)14-10-7-9-5-6-12(10,4)11(9,2)3/h9-10H,5-7H2,1-4H3/t9-,10+,12+/m0/s1",KGEKLUUHTZCSIP-HOSYDEDBSA-N,CC(=O)O[C@@H]1C[C@@H]2CC[C@@]1(C)C2(C)C,-3.49632384180,0.00000000000,1,G1,196.29000,2.76430,54.78300,14,2,0,2,1,80,0,2,2,2,26.30,86.01701930868,2.22554026726,269.49529453538
A-500,4-[4-(hydrazinesulfonyl)phenoxy]benzene-1-sulfonohydrazide,"InChI=1S/C12H14N4O5S2/c13-15-22(17,18)11-5-1-9(2-6-11)21-10-3-7-12(8-4-10)23(19,20)16-14/h1-8,15-16H,13-14H2",NBOCQTNZUPTTEI-UHFFFAOYSA-N,NN[S](=O)(=O)c1ccc(Oc2ccc(cc2)[S](=O)(=O)NN)cc1,-3.75848919540,0.00000000000,1,G1,358.40100,-0.21710,81.97580,23,7,4,11,6,124,2,0,0,2,153.61,132.84337214161,2.17053116421,802.55321813735
A-501,strontium(2+) ion hydrogen phosphate,"InChI=1S/H3O4P.Sr/c1-5(2,3)4;/h(H3,1,2,3,4);/q;+2/p-3",HKSVWJWYDJQNEV-UHFFFAOYSA-K,[Sr++].[O-][P]([O-])([O-])=O,-3.46838538840,0.00000000000,1,G1,182.59000,-3.20540,13.36050,6,4,0,6,0,32,0,0,0,0,86.25,71.69461662929,0.00000000000,53.68367439558
A-503,"Alkenes, C9-11, C10-rich","InChI=1S/C10H16/c1-3-5-7-9-10-8-6-4-2/h3,5-8H,1,4,9-10H2,2H3/b7-5+,8-6+",FDBJNQUXZRDJHC-KQQUZDAGSA-N,CC/C=C/CC/C=C/C=C,-3.34190657000,0.12051603300,2,G3,136.23800,3.47500,48.00200,10,0,0,0,5,56,0,0,0,0,0.00,63.95492096085,3.11409266487,118.00000000000
A-504,"(2Z)-but-2-ene-1,4-diol","InChI=1S/C4H8O2/c5-3-1-2-4-6/h1-2,5-6H,3-4H2/b2-1-",ORTVZLZNOYNASJ-UPHRSURJSA-N,OC\C=C/CO,0.84668516420,0.00000000000,1,G1,88.10600,-0.47280,23.31160,6,2,2,2,2,36,0,0,0,0,40.46,36.73294184323,2.73438599356,34.81274391313
A-506,2-[2-(2-ethoxyethoxy)ethoxy]ethyl methacrylate,"InChI=1S/C12H22O5/c1-4-14-5-6-15-7-8-16-9-10-17-12(13)11(2)3/h2,4-10H2,1,3H3",RBFPEAGEJJSYCX-UHFFFAOYSA-N,CCOCCOCCOCCOC(=O)C(C)=C,-0.60301142610,0.00000000000,1,G1,246.30300,1.17540,63.90400,17,5,0,5,11,100,0,0,0,0,53.99,102.67971427208,3.08441612305,214.94152779679
A-508,"(6R,7R)-3-[(acetyloxy)methyl]-7-amino-8-oxo-5-thia-1-azabicyclo[4.2.0]oct-2-ene-2-carboxylic acid","InChI=1S/C10H12N2O5S/c1-4(13)17-2-5-3-18-9-6(11)8(14)12(9)7(5)10(15)16/h6,9H,2-3,11H2,1H3,(H,15,16)/t6-,9-/m1/s1",HSHGZXNAXBPPDL-HZGVNTEJSA-N,CC(=O)OCC1=C(N2[C@H](SC1)[C@H](N)C2=O)C(O)=O,-2.64897772170,0.00000000000,1,G1,272.28200,-0.86940,62.36220,18,6,2,8,3,98,0,1,2,2,109.93,106.93764439257,2.25862370722,461.18439211607
A-511,decanoic acid,"InChI=1S/C10H20O2/c1-2-3-4-5-6-7-8-9-10(11)12/h2-9H2,1H3,(H,11,12)",GHVNFZFCNZKVNT-UHFFFAOYSA-N,CCCCCCCCCC(O)=O,-3.44521613660,0.19255139200,2,G3,172.26800,3.21170,50.24580,12,1,1,2,8,72,0,0,0,0,37.30,74.97948590964,2.86138733944,110.40620687739
A-514,2-methylpropane,"InChI=1S/C4H10/c1-4(2)3/h4H,1-3H3",NNPPMTNAJDCUHE-UHFFFAOYSA-N,CC(C)C,-2.97760407200,0.26537044441,5,G5,58.12400,1.66230,20.51200,4,0,0,0,0,26,0,0,0,0,0.00,27.83407737102,2.32379000772,4.75488750216
A-515,butane,"InChI=1S/C4H10/c1-3-4-2/h3-4H2,1-2H3",IJDNQMDRQITEOD-UHFFFAOYSA-N,CCCC,-2.97760407200,0.25678836520,5,G5,58.12400,1.80640,20.58200,4,0,0,0,1,26,0,0,0,0,0.00,27.83407737102,1.97474487139,2.00000000000
A-516,ethane,InChI=1S/C2H6/c1-2/h1-2H3,OTMSDBZUPAUEDD-UHFFFAOYSA-N,CC,-2.69138200600,0.59958698597,5,G4,30.07000,1.02620,11.34800,2,0,0,0,0,14,0,0,0,0,0.00,15.10419314223,1.00000000000,0.00000000000
A-519,"3-{6,6-dimethylbicyclo[3.1.1]hept-2-en-2-yl}propanal","InChI=1S/C12H18O/c1-12(2)10-6-5-9(4-3-7-13)11(12)8-10/h5,7,10-11H,3-4,6,8H2,1-2H3",DDFGFKGJBOILQZ-UHFFFAOYSA-N,CC1(C)C2CC=C(CCC=O)C1C2,-3.46576061010,0.00000000000,1,G1,178.27500,2.95790,53.37600,13,1,0,1,3,72,0,1,3,3,17.07,80.21387104699,2.05083529563,249.85009144401
A-520,2-(4-hydroxyphenyl)acetic acid,"InChI=1S/C8H8O3/c9-7-3-1-6(2-4-7)5-8(10)11/h1-4,9H,5H2,(H,10,11)",XQXPVVBIMDBYFF-UHFFFAOYSA-N,OC(=O)Cc1ccc(O)cc1,-0.39908041120,0.39548315519,3,G5,152.14900,1.01930,39.44660,11,2,2,3,2,58,1,0,0,1,57.53,63.91127695273,2.73629807211,250.54461008173
A-521,(4-methoxyphenyl)methyl acetate,"InChI=1S/C10H12O3/c1-8(11)13-7-9-3-5-10(12-2)6-4-9/h3-6H,7H2,1-2H3",HFNGYHHRRMSKEU-UHFFFAOYSA-N,COc1ccc(COC(C)=O)cc1,-2.47400664210,0.00775608305,2,G3,180.20300,1.75830,48.46400,13,3,0,3,3,70,1,0,0,1,35.53,77.27978413614,2.53756126450,276.72626181274
A-523,ammonium fluoride hydrofluoride,InChI=1S/2FH.H3N/h2*1H;1H3,KVBCYCWRDBDGBG-UHFFFAOYSA-N,[H+].[NH4+].[F-].[F-],1.02339413340,0.00000000000,1,G1,57.04300,-5.50330,7.09680,3,0,1,3,0,24,0,0,0,0,36.50,18.44635242215,0.00000000000,6.00000000000
A-525,"6-phenyl-1,3,5-triazine-2,4-diamine","InChI=1S/C9H9N5/c10-8-12-7(13-9(11)14-8)6-4-2-1-3-5-6/h1-5H,(H4,10,11,12,13,14)",GZVHEAJQGPRDLQ-UHFFFAOYSA-N,Nc1nc(N)nc(n1)c2ccccc2,-2.49416851350,0.13650063605,2,G3,187.20600,0.70300,54.08780,14,5,2,5,1,70,2,0,0,2,90.71,80.82722266243,2.52130358969,419.96023125939
A-526,4-tert-butylcyclohexyl prop-2-enoate,"InChI=1S/C13H22O2/c1-5-12(14)15-11-8-6-10(7-9-11)13(2,3)4/h5,10-11H,1,6-9H2,2-4H3",LAIJAUHBAWLPCO-UHFFFAOYSA-N,CC(C)(C)C1CCC(CC1)OC(=O)C=C,-3.53932809600,0.53943124115,3,G4,210.31700,3.32050,61.49000,15,2,0,2,2,86,0,1,1,1,26.30,92.69818954443,2.35965904974,229.41073293730
A-533,"1,4-dibromo-2-ethenylbenzene","InChI=1S/C8H6Br2/c1-2-6-5-7(9)3-4-8(6)10/h2-5H,1H2",KWVKCGGJLLNVSC-UHFFFAOYSA-N,Brc1ccc(Br)c(C=C)c1,-4.57873040770,0.00000000000,1,G1,261.94400,3.85460,51.93300,10,0,0,2,1,52,1,0,0,1,0.00,77.20677952739,3.21131092913,253.43454587872
A-535,3-hydroxy-N-(2-methylphenyl)naphthalene-2-carboxamide,"InChI=1S/C18H15NO2/c1-12-6-2-5-9-16(12)19-18(21)15-10-13-7-3-4-8-14(13)11-17(15)20/h2-11,20H,1H3,(H,19,21)",FBLAHUMENIHUGG-UHFFFAOYSA-N,Cc1ccccc1NC(=O)c2cc3ccccc3cc2O,-4.62344195410,0.00000000000,1,G1,277.32300,4.10612,84.74500,21,2,2,3,2,104,3,0,0,3,49.33,122.40566412194,1.97947101923,824.31620386203
A-539,"methyl 3-amino-5,6-dichloropyrazine-2-carboxylate","InChI=1S/C6H5Cl2N3O2/c1-13-6(12)2-5(9)11-4(8)3(7)10-2/h1H3,(H2,9,11)",USYMCUGEGUFUBI-UHFFFAOYSA-N,COC(=O)c1nc(Cl)c(Cl)nc1N,-4.53483860910,0.00000000000,1,G1,222.03100,1.15220,47.80390,13,5,1,7,1,70,1,0,0,1,78.10,83.82207379051,3.23123060520,355.97775522888
A-541,"2,4,6,7-tetraoxa-1$l^{3},3$l^{2},5$l^{3}-triplumbabicyclo[3.1.1]heptane",InChI=1S/4O.3Pb,XMFOQHDPRMAJNU-UHFFFAOYSA-N,O1[Pb]O[Pb]2O[Pb]1O2,-4.00805321090,0.00000000000,1,G1,685.59600,-1.41600,21.60200,7,4,0,7,0,36,0,3,3,3,36.92,74.15253193352,1.98974722534,63.49431755793
A-542,"N,N-dibutyloctadec-9-enamide","InChI=1S/C26H51NO/c1-4-7-10-11-12-13-14-15-16-17-18-19-20-21-22-23-26(28)27(24-8-5-2)25-9-6-3/h15-16H,4-14,17-25H2,1-3H3/b16-15-",YMGHPIVBMBXPCR-NXVVXOECSA-N,CCCCCCCC\C=C/CCCCCCCC(=O)N(CCCC)CCCC,-4.78898544080,0.00000000000,1,G1,393.70000,8.45270,125.84800,28,1,0,2,21,166,0,0,0,0,20.31,177.09455662581,3.51112815380,342.34197835097
A-543,"(1S,2S,4S)-1,7,7-trimethylbicyclo[2.2.1]heptan-2-yl 2-methylprop-2-enoate","InChI=1S/C14H22O2/c1-9(2)12(15)16-11-8-10-6-7-14(11,5)13(10,3)4/h10-11H,1,6-8H2,2-5H3",IAXXETNIOYFMLW-UHFFFAOYSA-N,CC(=C)C(=O)OC1CC2CCC1(C)C2(C)C,-4.54422043590,0.03358741280,2,G3,222.32800,3.32050,63.92300,16,2,0,2,2,90,0,2,2,2,26.30,98.05730050529,2.15927436756,342.64450429622
A-545,nonyl acetate,"InChI=1S/C11H22O2/c1-3-4-5-6-7-8-9-10-13-11(2)12/h3-10H2,1-2H3",GJQIMXVRFNLMTB-UHFFFAOYSA-N,CCCCCCCCCOC(C)=O,-4.47086064950,0.00000000000,1,G1,186.29500,3.30010,54.62600,13,2,0,2,8,78,0,0,0,0,26.30,81.66373950135,2.87291875917,121.25868639908
A-547,"1,3-xylene; 1,4-diethylcyclohexane; 8,15-diethylhexacosane; anthracene; naphthalene; tetradecahydroanthracene; triacontane","InChI=1S/2C30H62.C14H24.C14H10.C10H8.C10H20.C8H10/c1-5-9-11-13-14-15-16-18-22-26-30(8-4)28-24-20-19-23-27-29(7-3)25-21-17-12-10-6-2;1-3-5-7-9-11-13-15-17-19-21-23-25-27-29-30-28-26-24-22-20-18-16-14-12-10-8-6-4-2;2*1-2-6-12-10-14-8-4-3-7-13(14)9-11(12)5-1;1-2-6-10-8-4-3-7-9(10)5-1;1-3-9-5-7-10(4-2)8-6-9;1-7-4-3-5-8(2)6-7/h29-30H,5-28H2,1-4H3;3-30H2,1-2H3;11-14H,1-10H2;1-10H;1-8H;9-10H,3-8H2,1-2H3;3-6H,1-2H3",DXACIACMWHJFHD-UHFFFAOYSA-N,CCCCCCCCCCCCCCCCCCCCCCCCCCCCCC.CCCCCCCCCCCC(CC)CCCCCCC(CC)CCCCCCC.CCC1CCC(CC)CC1.Cc2cccc(C)c2.C3CCC4CC5CCCCC5CC4C3.c6ccc7ccccc7c6.c8ccc9cc%10ccccc%10cc9c8,-5.40505326110,0.59725717095,2,G2,1590.84400,40.75184,528.58600,116,0,0,0,54,660,6,4,4,10,0.00,724.98726927200,0.00000029996,2772.24980840895
A-550,anthracene; benzene; ethylbenzene; naphthalene; tetradecane,"InChI=1S/C14H10.C14H30.C10H8.C8H10.C6H6/c1-2-6-12-10-14-8-4-3-7-13(14)9-11(12)5-1;1-3-5-7-9-11-13-14-12-10-8-6-4-2;1-2-6-10-8-4-3-7-9(10)5-1;1-2-8-6-4-3-5-7-8;1-2-4-6-5-3-1/h1-10H;3-14H2,1-2H3;1-8H;3-7H,2H2,1H3;1-6H",PBMFOKZETGSLTK-UHFFFAOYSA-N,CCCCCCCCCCCCCC.CCc1ccccc1.c2ccccc2.c3ccc4ccccc4c3.c5ccc6cc7ccccc7cc6c5,-5.04169783280,0.59725717095,2,G2,689.08400,16.47580,234.41600,52,0,0,0,12,272,7,0,0,7,0.00,316.51007777736,0.00000018054,1628.02082838999
A-551,naphthalene,InChI=1S/C10H8/c1-2-6-10-8-4-3-7-9(10)5-1/h1-8H,UFWIBTONFRDIAS-UHFFFAOYSA-N,c1ccc2ccccc2c1,-4.31122560460,0.71895186251,5,G4,128.17400,2.83980,43.94800,10,0,0,0,0,48,2,0,0,2,0.00,60.11306765123,2.88805160166,271.01518240905
A-553,cyclohexyl 2-hydroxybenzoate,"InChI=1S/C13H16O3/c14-12-9-5-4-8-11(12)13(15)16-10-6-2-1-3-7-10/h4-5,8-10,14H,1-3,6-7H2",NUQDJSMHGCTKNL-UHFFFAOYSA-N,Oc1ccccc1C(=O)OC2CCCCC2,-4.55407629270,0.03229962310,2,G3,220.26800,2.88170,60.39530,16,3,1,3,2,86,1,1,1,2,46.53,95.04946784849,1.99539777228,367.19538535705
A-554,(4R)-1-methyl-4-(prop-1-en-2-yl)cyclohex-1-ene,"InChI=1S/C10H16/c1-8(2)10-6-4-9(3)5-7-10/h4,10H,1,5-7H2,2-3H3/t10-/m0/s1",XMGQYMWWDOXHJM-JTQLQIEISA-N,CC(=C)[C@@H]1CCC(=CC1)C,-4.34683778500,0.17426641780,3,G5,136.23800,3.30890,45.91200,10,0,0,0,1,56,0,0,1,1,0.00,63.63869283950,2.49541222686,162.87712379549
A-555,hex-3-en-1-yl hex-3-enoate,"InChI=1S/C12H20O2/c1-3-5-7-9-11-14-12(13)10-8-6-4-2/h5-8H,3-4,9-11H2,1-2H3/b7-5-,8-6-",UZJQQWFHPLYECS-SFECMWDFSA-N,CC\C=C/CCOC(=O)C\C=C/CC,-4.50970948390,0.06626583164,5,G5,196.29000,3.24220,59.05500,14,2,0,2,7,80,0,0,0,0,26.30,86.64947555137,3.35272416104,192.49841012019
A-556,"13-ethyl-3-methoxy-4,6,7,8,9,11,12,13,14,15,16,17-dodecahydro-1H-cyclopenta[a]phenanthren-17-ol (non-preferred name)","InChI=1S/C20H30O2/c1-3-20-11-10-16-15-7-5-14(22-2)12-13(15)4-6-17(16)18(20)8-9-19(20)21/h5,16-19,21H,3-4,6-12H2,1-2H3/t16-,17-,18+,19+,20+/m1/s1",DKGAZBPXLWEBPI-SLHNCBLASA-N,CC[C@]12CC[C@H]3[C@@H](CCC4=C3CC=C(C4)OC)[C@@H]1CC[C@@H]2O,-4.70251382570,0.00000000000,1,G1,302.45800,4.59440,88.25480,22,2,1,2,2,122,0,2,4,4,29.46,134.17839950458,1.61211186007,517.80028576997