ID,Name,InChI,InChIKey,SMILES,Solubility,SD,Ocurrences,Group,MolWt,MolLogP,MolMR,HeavyAtomCount,NumHAcceptors,NumHDonors,NumHeteroatoms,NumRotatableBonds,NumValenceElectrons,NumAromaticRings,NumSaturatedRings,NumAliphaticRings,RingCount,TPSA,LabuteASA,BalabanJ,BertzCT
A-4405,2-hydroxy-2-methyl-1-phenylpropan-1-one,"InChI=1S/C10H12O2/c1-10(2,12)9(11)8-6-4-3-5-7-8/h3-7,12H,1-2H3",XMLYCEVDHLAQEL-UHFFFAOYSA-N,CC(C)(O)C(=O)c1ccccc1,-1.09153209130,0.00000000000,1,G1,164.20400,1.64020,47.07030,12,2,1,2,2,64,1,0,0,1,37.30,71.84692742932,2.94434194516,269.64009548556
A-4406,"5-methyl-3a,4,7,7a-tetrahydro-2-benzofuran-1,3-dione","InChI=1S/C9H10O3/c1-5-2-3-6-7(4-5)9(11)12-8(6)10/h2,6-7H,3-4H2,1H3",OEMSKMUAMXLNKL-UHFFFAOYSA-N,CC1=CCC2C(C1)C(=O)OC2=O,-1.09999436970,0.00000000000,1,G1,166.17600,1.04230,41.07000,12,3,0,3,0,64,0,1,2,2,43.37,70.39411203335,2.26802863726,277.49823521091
A-4407,[(2-ethylhexyl)oxy]phosphonic acid,"InChI=1S/C8H18O.H3O4P/c1-3-5-6-8(4-2)7-9;1-5(2,3)4/h8-9H,3-7H2,1-2H3;(H3,1,2,3,4)",FZQYZMODYSBPES-UHFFFAOYSA-N,CCCCC(CC)CO.O[P](O)(O)=O,-1.23778928450,1.67302848275,2,G2,228.22500,1.26650,54.65470,14,2,4,6,5,88,0,0,0,0,97.99,85.02622266539,0.00000000000,143.54596597980
A-4411,2-methylbutanal,"InChI=1S/C5H10O/c1-3-5(2)4-6/h4-5H,3H2,1-2H3",BYGQBDHUGHBGMD-UHFFFAOYSA-N,CCC(C)C=O,-0.82123126370,0.00000000000,1,G1,86.13400,1.23140,25.51900,6,1,0,1,2,36,0,0,0,0,17.07,38.36054158546,2.96490049476,41.20310343870
A-4412,"N,N-diisobutylformamide","InChI=1S/C9H19NO/c1-8(2)5-10(7-11)6-9(3)4/h7-9H,5-6H2,1-4H3",NTYICSDTCGMBQM-UHFFFAOYSA-N,CC(C)CN(CC(C)C)C=O,-1.08266663400,0.00000000000,1,G1,157.25700,1.75680,47.31300,11,1,0,2,5,66,0,0,0,0,20.31,69.58014371325,3.66584280903,100.13036060964
A-4414,"N-(6-amino-1,3-dimethyl-2,4-dioxo-1,2,3,4-tetrahydropyrimidin-5-yl)formamide","InChI=1S/C7H10N4O3/c1-10-5(8)4(9-3-12)6(13)11(2)7(10)14/h3H,8H2,1-2H3,(H,9,12)",ZNDGAXCBZGSJGU-UHFFFAOYSA-N,CN1C(=C(NC=O)C(=O)N(C)C1=O)N,-1.18312085460,0.00000000000,1,G1,198.18200,-1.76550,51.02310,14,6,2,7,2,76,1,0,0,1,99.12,78.75978757852,3.68150035377,484.93387899183
A-4415,"trisodium 5-({4-chloro-6-[ethyl(phenyl)amino]-1,3,5-triazin-2-yl}amino)-4-hydroxy-3-[(E)-2-(4-methyl-2-sulfonatophenyl)diazen-1-yl]naphthalene-2,7-disulfonate","InChI=1S/C28H24ClN7O10S3.3Na/c1-3-36(17-7-5-4-6-8-17)28-32-26(29)31-27(33-28)30-20-14-18(47(38,39)40)12-16-13-22(49(44,45)46)24(25(37)23(16)20)35-34-19-10-9-15(2)11-21(19)48(41,42)43;;;/h4-14,34H,3H2,1-2H3,(H,38,39,40)(H,41,42,43)(H,44,45,46)(H,30,31,32,33);;;/q;3*+1/p-3/b35-24+;;;",WIBRJYWLQKJILM-YFVOZPKESA-K,[Na+].[Na+].[Na+].CCN(c1ccccc1)c2nc(Cl)nc(Nc3cc(cc4C=C(\C(=N/Nc5ccc(C)cc5[S]([O-])(=O)=O)C(=O)c34)[S]([O-])(=O)=O)[S]([O-])(=O)=O)n2,-0.80043439480,0.00000000000,1,G1,816.13900,-5.89428,173.85150,52,17,2,24,10,256,4,0,1,5,267.00,369.43670206429,0.00000312111,2422.93926147332
A-4416,2-[(prop-2-en-1-yloxy)methyl]oxirane,"InChI=1S/C6H10O2/c1-2-3-7-4-6-5-8-6/h2,6H,1,3-5H2",LSWYGACWGAICNM-UHFFFAOYSA-N,C=CCOCC1CO1,0.04975688200,0.01945903300,2,G3,114.14400,0.58780,30.75600,8,2,0,2,4,46,0,1,1,1,21.76,49.09561787311,1.80359380095,76.59772060569
A-4423,"ethyl (2-methyl-1,3-dioxolan-2-yl)acetate","InChI=1S/C8H14O4/c1-3-10-7(9)6-8(2)11-4-5-12-8/h3-6H2,1-2H3",XWEOGMYZFCHQNT-UHFFFAOYSA-N,CCOC(=O)CC1(C)OCCO1,-0.14482359290,0.00000000000,1,G1,174.19600,0.70260,41.55900,12,4,0,4,3,70,0,1,1,1,44.76,71.79017246364,2.32930760444,160.44079551951
A-4424,"3,3'-[azoxybis[(2-methoxy-p-phenylene)azo]]bis[4,5-dihydroxynaphthalene-2,7-disulphonic] acid, lithium sodium salt","InChI=1S/C34H26N6O19S4.2Li.2Na/c1-58-25-11-17(3-5-21(25)35-37-31-27(62(52,53)54)9-15-7-19(60(46,47)48)13-23(41)29(15)33(31)43)39-40(45)18-4-6-22(26(12-18)59-2)36-38-32-28(63(55,56)57)10-16-8-20(61(49,50)51)14-24(42)30(16)34(32)44;;;;/h3-14,36,41-42,45H,1-2H3,(H,46,47,48)(H,49,50,51)(H,52,53,54)(H,55,56,57);;;;/q;4*+1/p-4/b35-21-,37-31-,38-32+,39-17+;;;;",OJJZXLAZFFTFNT-AZMQIZTHSA-J,[Li+].[Li+].[Na+].[Na+].COc1cc(ccc1N\N=C/2C(=O)c3c(O)cc(cc3C=C2[S]([O-])(=O)=O)[S]([O-])(=O)=O)N(O)\N=C\4C=CC(=N\N=C\5C(=O)c6c(O)cc(cc6C=C5[S]([O-])(=O)=O)[S]([O-])(=O)=O)\C(=C4)OC,-0.90947967770,0.00000000000,1,G1,1006.70300,-11.28760,211.00360,67,25,4,33,11,330,3,0,3,6,406.80,447.23350238322,0.00000385333,3320.06550416333
A-4426,potassium vanadium trioxide,InChI=1S/K.3O.V/q+1;;;-1;,BQFYGYJPBUKISI-UHFFFAOYSA-N,[K+].[O-][V](=O)=O,-0.04657382690,0.00000000000,1,G1,138.03700,-4.42510,1.37300,5,3,0,5,0,24,0,0,0,0,57.20,76.53765720086,0.00000000000,55.29331487002
A-4427,lanthanum trinitrate,InChI=1S/La,FZLIPJUXYLNCLC-UHFFFAOYSA-N,[La],0.94718410610,0.00000000000,1,G1,138.90600,0.00000,0.00000,1,0,0,1,0,3,0,0,0,0,0.00,35.47218132421,0.00000000000,0.00000000000
A-4428,"dilithium(1+) ion sodium hydrogen 4-amino-6-(2-{5-[(5-chloro-2,6-difluoropyrimidin-4-yl)amino]-2-sulfonatophenyl}diazen-1-yl)-5-hydroxy-3-(2-{4-[2-(sulfonatooxy)ethanesulfonyl]phenyl}diazen-1-yl)naphthalene-2,7-disulfonate","InChI=1S/C28H21ClF2N8O16S5.2Li.2Na/c29-21-26(30)34-28(31)35-27(21)33-14-3-6-17(57(43,44)45)16(11-14)37-39-24-19(59(49,50)51)10-12-9-18(58(46,47)48)23(22(32)20(12)25(24)40)38-36-13-1-4-15(5-2-13)56(41,42)8-7-55-60(52,53)54;;;;/h1-6,9-11,37H,7-8,32H2,(H,33,34,35)(H,43,44,45)(H,46,47,48)(H,49,50,51)(H,52,53,54);;;;/q;4*+1/p-4/b38-36?,39-24+;;;;",OBOXNUGISJYBKV-ZKLNYUHUSA-J,[Li+].[Li+].[Na+].[Na+].Nc1c(N=Nc2ccc(cc2)[S](=O)(=O)CCO[S]([O-])(=O)=O)c(cc3C=C(\C(=N/Nc4cc(Nc5nc(F)nc(F)c5Cl)ccc4[S]([O-])(=O)=O)C(=O)c13)[S]([O-])(=O)=O)[S]([O-])(=O)=O,-0.91380101790,0.00000000000,1,G1,1015.13000,-10.22540,194.84590,64,24,3,36,14,320,4,0,1,5,402.18,433.96833257264,0.00000511999,3178.16365682808
A-4429,"5-[[4-chloro-6-[(3-sulphophenyl)amino]-1,3,5-triazin-2-yl]amino]-4-hydroxy-3-[[4-[[2-(sulphooxy)ethyl]sulphonyl]phenyl]azo]naphthalene-2,7-disulphonic acid, sodium salt","InChI=1S/C27H22ClN7O16S5.4Na/c28-25-31-26(29-16-2-1-3-18(12-16)53(39,40)41)33-27(32-25)30-20-13-19(54(42,43)44)10-14-11-21(55(45,46)47)23(24(36)22(14)20)35-34-15-4-6-17(7-5-15)52(37,38)9-8-51-56(48,49)50;;;;/h1-7,10-13,34H,8-9H2,(H,39,40,41)(H,42,43,44)(H,45,46,47)(H,48,49,50)(H2,29,30,31,32,33);;;;/q;4*+1/p-4/b35-23+;;;;",FBVKADSDGSVOTJ-SADQMHESSA-J,[Na+].[Na+].[Na+].[Na+].[O-][S](=O)(=O)OCC[S](=O)(=O)c1ccc(N\N=C/2C(=O)c3c(Nc4nc(Cl)nc(Nc5cccc(c5)[S]([O-])(=O)=O)n4)cc(cc3C=C2[S]([O-])(=O)=O)[S]([O-])(=O)=O)cc1,-0.90318795700,0.00000000000,1,G1,984.22200,-11.36260,187.41920,60,23,3,33,14,298,4,0,1,5,376.36,434.85177158340,0.00000450000,2929.15257211745
A-4430,"1,4-dimethyl butanedioate","InChI=1S/C6H10O4/c1-9-5(7)3-4-6(8)10-2/h3-4H2,1-2H3",MUXOBHXGJLMRAB-UHFFFAOYSA-N,COC(=O)CCC(=O)OC,-0.07522316360,0.33521451460,3,G5,146.14200,0.11260,33.26600,10,4,0,4,3,58,0,0,0,0,52.60,59.11409625891,3.35292151646,113.70950594455
A-4433,"1,2-bis(oxiran-2-ylmethyl) cyclohex-4-ene-1,2-dicarboxylate","InChI=1S/C14H18O6/c15-13(19-7-9-5-17-9)11-3-1-2-4-12(11)14(16)20-8-10-6-18-10/h1-2,9-12H,3-8H2",KTPIWUHKYIJBCR-UHFFFAOYSA-N,O=C(OCC1CO1)C2CC=CCC2C(=O)OCC3CO3,-1.34010886040,0.00000000000,1,G1,282.29200,0.45280,66.75200,20,6,0,6,6,110,0,2,3,3,77.66,116.55362714033,1.52233487423,371.88719105587
A-4434,calcium bis((2Z)-4-oxopent-2-en-2-olate),"InChI=1S/2C5H7O2.Ca/c2*1-4(6)3-5(2)7;/h2*3H,1-2H3;/q2*-1;+2",XVYOQBDTLDXFQL-UHFFFAOYSA-N,[Ca++].CC(=O)[CH-]C(C)=O.CC(=O)[CH-]C(C)=O,-1.26652704210,0.00000000000,1,G1,238.29600,0.35658,57.07800,15,4,0,5,4,80,0,0,0,0,68.28,119.79141760633,-0.00000018000,195.80694332859
A-4435,disodium 6-amino-5-[(E)-2-[4-(2-bromoprop-2-enamido)-2-sulfonatophenyl]diazen-1-yl]-4-hydroxynaphthalene-2-sulfonate,"InChI=1S/C19H15BrN4O8S2.2Na/c1-9(20)19(26)22-11-3-5-14(16(7-11)34(30,31)32)23-24-18-13(21)4-2-10-6-12(33(27,28)29)8-15(25)17(10)18;;/h2-8,21,23-24H,1H2,(H,22,26)(H,27,28,29)(H,30,31,32);;/q;2*+1/p-2",LRXBCDZWNALTBO-UHFFFAOYSA-L,[Na+].[Na+].[O-][S](=O)(=O)C1=CC(=O)C2=C(NNc3ccc(NC(=O)C(Br)=C)cc3[S]([O-])(=O)=O)C(=N)C=CC2=C1,-1.67853320040,0.00000000000,1,G1,615.35100,-4.85583,122.62320,36,11,4,17,7,178,1,0,2,3,208.48,258.29570978023,0.00000324000,1513.29378387598
A-4436,"3,4-dihydroxybenzonitrile","InChI=1S/C7H5NO2/c8-4-5-1-2-6(9)7(10)3-5/h1-3,9-10H",NUWHYWYSMAPBHK-UHFFFAOYSA-N,Oc1ccc(cc1O)C#N,-1.02351609510,0.02100457150,2,G3,135.12200,0.96948,34.48660,10,3,2,3,0,50,1,0,0,1,64.25,57.77739241975,3.20011778062,288.14784791592
A-4437,2-[2-(2-{2-[(2-methylprop-2-enoyl)oxy]ethoxy}ethoxy)ethoxy]ethyl 2-methylprop-2-enoate,"InChI=1S/C16H26O7/c1-13(2)15(17)22-11-9-20-7-5-19-6-8-21-10-12-23-16(18)14(3)4/h1,3,5-12H2,2,4H3",LTHJXDSHSVNJKG-UHFFFAOYSA-N,CC(=C)C(=O)OCCOCCOCCOCCOC(=O)C(C)=C,-1.41863926010,0.00000000000,1,G1,330.37700,1.27480,84.00300,23,7,0,7,14,132,0,0,0,0,80.29,136.72494702703,3.19257479863,353.88998959145
A-4438,4-aminobenzenesulfonic acid,"InChI=1S/C6H7NO3S/c7-5-1-3-6(4-2-5)11(8,9)10/h1-4H,7H2,(H,8,9,10)",HVBSAKJJOYLTQU-UHFFFAOYSA-N,Nc1ccc(cc1)[S](O)(=O)=O,-1.14127302530,0.03616080491,3,G5,173.19300,0.51550,40.66900,11,3,2,5,1,60,1,0,0,1,80.39,64.39992982655,3.20151593107,340.59507449357
A-4439,methoxycyclopentane,"InChI=1S/C6H12O/c1-7-6-4-2-3-5-6/h6H,2-5H2,1H3",SKTCDJAMAYNROS-UHFFFAOYSA-N,COC1CCCC1,-0.90378863880,0.00000000000,1,G1,100.16100,1.57540,29.26500,7,1,0,1,1,42,0,1,1,1,9.23,44.67167567579,2.13996331865,46.14170945008
A-4440,"3,4-diaminobenzenesulfonic acid","InChI=1S/C6H8N2O3S/c7-5-2-1-4(3-6(5)8)12(9,10)11/h1-3H,7-8H2,(H,9,10,11)",FKSRSWQTEJTBMI-UHFFFAOYSA-N,Nc1ccc(cc1N)[S](O)(=O)=O,-1.18121639450,0.00000000000,1,G1,188.20800,0.09770,45.08140,12,4,3,6,1,66,1,0,0,1,106.41,69.73982052356,3.32729599902,399.25426679469
A-4442,(E)-N-(pyridin-2-ylmethylidene)hydroxylamine,"InChI=1S/C6H6N2O/c9-8-5-6-3-1-2-4-7-6/h1-5,7H/b6-5+",VRGKDCRTYBCJTA-AATRIKPKSA-N,O=N\C=C/1NC=CC=C1,-1.00045185830,0.00000000000,1,G1,122.12700,1.26730,35.29370,9,3,1,3,1,46,0,0,1,1,41.46,52.73391551757,2.65072118943,191.23454122869
A-4444,"3a,4,7,7a-tetrahydro-1H-isoindole-1,3(2H)-dione","InChI=1S/C8H9NO2/c10-7-5-3-1-2-4-6(5)8(11)9-7/h1-2,5-6H,3-4H2,(H,9,10,11)",CIFFBTOJCKSRJY-UHFFFAOYSA-N,O=C1NC(=O)C2CC=CCC12,-1.09309141770,0.00000000000,1,G1,151.16500,0.22520,38.50370,11,2,1,3,0,58,0,1,2,2,46.17,64.46548687306,2.27508905612,220.47661314835
A-4445,"3,5,5-trimethylcyclohex-2-en-1-one","InChI=1S/C9H14O/c1-7-4-8(10)6-9(2,3)5-7/h4H,5-6H2,1-3H3",HJOVHMDZYOCNQW-UHFFFAOYSA-N,CC1=CC(=O)CC(C)(C)C1,-1.06135822090,0.04109337810,2,G3,138.21000,2.32180,41.77900,10,1,0,1,0,56,0,0,1,1,17.07,62.12487585733,2.79815417021,186.90494715593
A-4446,3-methylaniline,"InChI=1S/C7H9N/c1-6-3-2-4-7(8)5-6/h2-5H,8H2,1H3",JJYPMNFTHPTTDI-UHFFFAOYSA-N,Cc1cccc(N)c1,-0.95083524750,0.08861364603,4,G5,107.15600,1.57722,35.59140,8,1,1,1,0,42,1,0,0,1,26.02,49.13623593091,3.07766043797,164.24662946460
A-4449,"1-{bis[4-(diethylamino)phenyl]methyl}naphthalene-2,7-disulfonic acid","InChI=1S/C31H36N2O6S2/c1-5-32(6-2)25-15-9-23(10-16-25)30(24-11-17-26(18-12-24)33(7-3)8-4)31-28-21-27(40(34,35)36)19-13-22(28)14-20-29(31)41(37,38)39/h9-21,30H,5-8H2,1-4H3,(H,34,35,36)(H,37,38,39)",BCYNJKQQXIODNZ-UHFFFAOYSA-N,CCN(CC)c1ccc(cc1)C(c2ccc(cc2)N(CC)CC)c3c4cc(ccc4ccc3[S](O)(=O)=O)[S](O)(=O)=O,-0.69847614940,0.00000000000,1,G1,596.77100,6.20580,164.52820,41,6,2,10,11,218,4,0,0,4,115.22,242.28867445342,2.06741946971,1667.67567283066
A-4450,2-methylbutan-2-ol,"InChI=1S/C5H12O/c1-4-5(2,3)6/h6H,4H2,1-3H3",MSXVEPNJUHWQHW-UHFFFAOYSA-N,CCC(C)(C)O,0.12665969070,0.02704922542,4,G5,88.15000,1.16730,26.58880,6,1,1,1,1,38,0,0,0,0,20.23,38.99325323761,3.16848987267,33.69332843437
A-4451,rhodium(3+) ion trinitrate,InChI=1S/3NO3.Rh/c3*2-1(3)4;/q3*-1;+3,VXNYVYJABGOSBX-UHFFFAOYSA-N,[Rh+3].[O-][N+]([O-])=O.[O-][N+]([O-])=O.[O-][N+]([O-])=O,0.60741126190,0.00000000000,1,G1,288.91800,-0.71980,31.08420,13,9,0,13,0,78,0,0,0,0,198.60,81.47304318558,-0.00000004500,112.40947885963
A-4453,thiourea,"InChI=1S/CH4N2S/c2-1(3)4/h(H4,2,3,4)",UMGDCJDMYOKAJW-UHFFFAOYSA-N,NC(N)=S,0.18851626600,0.10225145429,6,G5,76.12400,-0.81130,20.97280,4,1,2,3,0,24,0,0,0,0,52.04,29.77781266906,2.80303948767,29.01955000865
A-4456,"5-(benzoylamino)-3-[[5-[[(5-chloro-2,6-difluoro-4-pyrimidinyl)amino]methyl]-1-sulpho-2-naphthyl]azo]-4-hydroxynaphthalene-2,7-disulphonic acid, lithium sodium salt","InChI=1S/C32H21ClF2N6O11S3.Li.2Na/c33-25-29(34)38-32(35)39-30(25)36-14-16-7-4-8-20-19(16)9-10-21(28(20)55(50,51)52)40-41-26-23(54(47,48)49)12-17-11-18(53(44,45)46)13-22(24(17)27(26)42)37-31(43)15-5-2-1-3-6-15;;;/h1-13,40H,14H2,(H,37,43)(H,36,38,39)(H,44,45,46)(H,47,48,49)(H,50,51,52);;;/q;3*+1/p-3/b41-26+;;;",XBPKXTOUESGOQS-JVNZOHJBSA-K,[Li+].[Na+].[Na+].[O-][S](=O)(=O)c1cc(NC(=O)c2ccccc2)c3C(=O)C(=N/Nc4ccc5c(CNc6nc(F)nc(F)c6Cl)cccc5c4[S]([O-])(=O)=O)/C(=Cc3c1)[S]([O-])(=O)=O,-0.89008650810,0.00000000000,1,G1,885.09800,-5.20350,188.05870,58,16,3,26,10,284,5,0,1,6,279.97,388.70056382320,0.00000300000,2897.99179278788
A-4458,"benzene-1,3-diol","InChI=1S/C6H6O2/c7-5-2-1-3-6(8)4-5/h1-4,7-8H",GHMLBKRAJCXXBS-UHFFFAOYSA-N,Oc1cccc(O)c1,1.00348832780,0.13243459369,4,G5,110.11200,1.09780,29.77160,8,2,2,2,0,42,1,0,0,1,40.46,47.01987062389,3.07766043797,166.38833891467
A-4459,1-hexadecylpyridinium chloride,"InChI=1S/C21H38N.ClH/c1-2-3-4-5-6-7-8-9-10-11-12-13-14-16-19-22-20-17-15-18-21-22;/h15,17-18,20-21H,2-14,16,19H2,1H3;1H/q+1;/p-1",YMKDRGPMQRFJGP-UHFFFAOYSA-M,[Cl-].CCCCCCCCCCCCCCCC[n+]1ccccc1,-0.48614955150,0.00000000000,1,G1,339.99500,3.45940,96.94900,23,0,0,2,15,134,1,0,0,1,3.88,150.85318966993,0.00000483999,325.87327126363
A-4461,"2-[(allyloxy)methyl]-2-methylbutane-1,1-diol","InChI=1S/C9H18O3/c1-3-5-12-8-9(4-2,6-10)7-11/h3,10-11H,1,4-8H2,2H3",LZDXRPVSAKWYDH-UHFFFAOYSA-N,CCC(CO)(CO)COCC=C,-0.19975517730,0.00000000000,1,G1,174.24000,0.57000,47.91160,12,3,2,3,7,72,0,0,0,0,49.69,73.67119764472,3.83534630803,110.67739285527
A-4462,2-hydroxy-4-(methylsulfanyl)butanenitrile,"InChI=1S/C5H9NOS/c1-8-3-2-5(7)4-6/h5,7H,2-3H2,1H3",VWWOJJANXYSACS-UHFFFAOYSA-N,CSCCC(O)C#N,-0.07654114990,0.00000000000,1,G1,131.20000,0.62398,34.61880,8,3,1,3,3,46,0,0,0,0,44.02,53.50894294445,3.01625782112,88.91968453854
A-4463,3-methylbut-2-enal,"InChI=1S/C5H8O/c1-5(2)3-4-6/h3-4H,1-2H3",SEPQTYODOKLVSB-UHFFFAOYSA-N,CC(C)=CC=O,0.11650374690,0.00000000000,1,G1,84.11800,1.15150,25.49500,6,1,0,1,1,34,0,0,0,0,17.07,37.67093855328,3.40503261293,68.00763013991
A-4464,lithium(1+) ion hydroxide,InChI=1S/Li.H2O/h;1H2/q+1;/p-1,WMFOQBRAJBCJND-UHFFFAOYSA-M,[Li+].[OH-],0.66212343570,0.18434783950,3,G5,23.94800,-3.17280,1.93580,2,1,0,2,0,8,0,0,0,0,30.00,25.14679671425,0.00000000000,2.00000000000
A-4465,"3,5-dimethylhex-1-yn-3-ol","InChI=1S/C8H14O/c1-5-8(4,9)6-7(2)3/h1,7,9H,6H2,2-4H3",NECRQCBKTGZNMH-UHFFFAOYSA-N,CC(C)CC(C)(O)C#C,-1.03659792430,0.00000000000,1,G1,126.19900,1.41670,38.91180,9,1,1,1,2,52,0,0,0,0,20.23,57.08730497266,3.75971623834,117.01955000865
A-4466,cyclohex-3-ene-1-carbaldehyde,"InChI=1S/C7H10O/c8-6-7-4-2-1-3-5-7/h1-2,6-7H,3-5H2",DCFDVJPDXYGCOK-UHFFFAOYSA-N,O=CC1CCC=CC1,-0.97755016810,0.00000000000,1,G1,110.15600,1.54160,32.54500,8,1,0,1,1,44,0,0,1,1,17.07,49.39499162854,2.37141579550,104.95445336321
A-4468,"1,3-diazinane-2,4,6-trione","InChI=1S/C4H4N2O3/c7-2-1-3(8)6-4(9)5-2/h1H2,(H2,5,6,7,8,9)",HNYOPLTXPVRDBG-UHFFFAOYSA-N,O=C1CC(=O)NC(=O)N1,-1.04866163920,0.11745647980,2,G3,128.08700,-1.25750,26.29840,9,3,2,5,0,48,0,1,1,1,75.27,50.41253688484,2.63662985590,140.96755675238
A-4470,6-chlorohexan-1-ol,"InChI=1S/C6H13ClO/c7-5-3-1-2-4-6-8/h8H,1-6H2",JNTPTNNCGDAGEJ-UHFFFAOYSA-N,OCCCCCCCl,-1.08244219520,0.00000000000,1,G1,136.62200,1.77790,36.27380,8,1,1,2,5,50,0,0,0,0,20.23,55.66146157889,2.53006045688,33.50977500433
A-4471,suberonitrile,InChI=1S/C8H12N2/c9-7-5-3-1-2-4-6-8-10/h1-6H2,BTNXBLUGMAMSSH-UHFFFAOYSA-N,N#CCCCCCCC#N,-1.08109228670,0.00000000000,1,G1,136.19800,2.37416,38.92800,10,2,0,2,5,54,0,0,0,0,47.58,62.07900519154,2.80308239219,120.31703099214
A-4472,2-(4-methyl-5-oxo-4-propan-2-yl-1H-imidazol-2-yl)pyridine-3-carboxylic acid,"InChI=1S/C13H15N3O3/c1-7(2)13(3)12(19)15-10(16-13)9-8(11(17)18)5-4-6-14-9/h4-7H,1-3H3,(H,17,18)(H,15,16,19)",CLQMBPJKHLGMQK-UHFFFAOYSA-N,CC(C)C1(C)N=C(NC1=O)c2ncccc2C(O)=O,-1.36402938610,0.00000000000,1,G1,261.28100,1.07090,69.11900,19,4,2,6,3,100,1,0,1,2,91.65,110.12721948384,2.50654011762,580.25110336603
A-4474,pent-2-enenitrile,"InChI=1S/C5H7N/c1-2-3-4-5-6/h3-4H,2H2,1H3/b4-3-",ISBHMJZRKAFTGE-ARJAWSKDSA-N,CC\C=C/C#N,-0.85989921170,0.00000000000,1,G1,81.11800,1.47618,25.04400,6,1,0,1,1,32,0,0,0,0,23.79,37.90199613470,3.01606149002,76.42945954287
A-4477,"2-phenyl-4,5-dihydro-1H-imidazole","InChI=1S/C9H10N2/c1-2-4-8(5-3-1)9-10-6-7-11-9/h1-5H,6-7H2,(H,10,11)/p+1",BKCCAYLNRIRKDJ-UHFFFAOYSA-O,C1C[NH+]=C(N1)c2ccccc2,-1.12651807520,0.00000000000,1,G1,147.20100,-0.88300,44.38340,11,1,2,2,1,56,1,0,1,2,26.00,65.96558297863,2.29241189428,264.15103906059
A-4478,"tricyclo[2.2.2.2~1,4~]decane-2,5-diyldimethanol","InChI=1S/C12H20O2/c13-5-7-1-2-10-11-4-8(12(7)10)3-9(11)6-14/h7-14H,1-6H2",OTLDLKLSNZMTTA-UHFFFAOYSA-N,OCC1CCC2C3CC(CC3CO)C12,-1.25150548990,0.00000000000,1,G1,196.29000,1.26940,53.57960,14,2,2,2,2,80,0,3,3,3,40.46,85.32458833000,1.79560984479,226.36161893477
A-4479,hydroxy(phenyl)acetic acid,"InChI=1S/C8H8O3/c9-7(8(10)11)6-4-2-1-3-5-6/h1-5,7,9H,(H,10,11)/t7-/m1/s1",IWYDHOAUDWTVEP-SSDOTTSWSA-N,O[C@@H](C(O)=O)c1ccccc1,-0.14166676220,0.00000000000,1,G1,152.14900,0.80460,39.03760,11,2,2,3,2,58,1,0,0,1,57.53,63.91127695273,2.85117789016,242.77390023702
A-4480,Alpha-Methylglucoside,"InChI=1S/C7H14O6/c1-12-7-6(11)5(10)4(9)3(2-8)13-7/h3-11H,2H2,1H3",HOVAGTYPODGVJG-UHFFFAOYSA-N,COC1OC(CO)C(O)C(O)C1O,0.74521254910,0.22310627455,2,G3,194.18300,-2.56730,40.77620,13,6,4,6,2,78,0,1,1,1,99.38,75.32709802848,2.65939047969,143.06175692903
A-4483,"but-2-yne-1,4-diol; 2-(chloromethyl)oxirane","InChI=1S/C4H6O2.C3H5ClO/c5-3-1-2-4-6;4-1-3-2-5-3/h5-6H,3-4H2;3H,1-2H2",NHNWEVUXQTXHJI-UHFFFAOYSA-N,OCC#CCO.ClCC1CO1,0.77787154290,1.19316839715,2,G2,178.61500,-0.40160,42.40760,11,3,2,4,1,64,0,1,1,1,52.99,70.93340806685,0.00000018333,126.35644994446
A-4484,3-methyloxolane,"InChI=1S/C5H10O/c1-5-2-3-6-4-5/h5H,2-4H2,1H3",LJPCNSSTRWGCMZ-UHFFFAOYSA-N,CC1CCOC1,0.09013124930,0.00000000000,1,G1,86.13400,1.04280,24.60000,6,1,0,1,0,36,0,1,1,1,9.23,38.30673356139,2.18410556964,37.20310343870
A-4485,chromium(3+) ion trinitrate,InChI=1S/Cr.3NO3/c;3*2-1(3)4/q+3;3*-1,PHFQLYPOURZARY-UHFFFAOYSA-N,[Cr+3].[O-][N+]([O-])=O.[O-][N+]([O-])=O.[O-][N+]([O-])=O,0.64563054960,0.00000000000,1,G1,238.00800,-0.71980,31.08420,13,9,0,13,0,75,0,0,0,0,198.60,79.46322813500,-0.00000004500,112.40947885963
A-4486,1-ethenylsulfanylethanol,"InChI=1S/C4H8OS/c1-3-6-4(2)5/h3-5H,1H2,2H3",XBSXOHLQFBHTPM-UHFFFAOYSA-N,CC(O)SC=C,0.00549311940,0.00000000000,1,G1,104.17400,1.20140,29.46880,6,2,1,2,2,36,0,0,0,0,20.23,42.06181811640,2.81414422178,42.81274391313
A-4487,"disodium 4-amino-3-[(E)-2-{4-[(E)-2-(2,4-diaminophenyl)diazen-1-yl]phenyl}diazen-1-yl]-5-hydroxy-6-[(E)-2-phenyldiazen-1-yl]naphthalene-2,7-disulfonate","InChI=1S/C28H23N9O7S2.2Na/c29-16-6-11-21(20(30)14-16)35-32-18-7-9-19(10-8-18)34-36-26-22(45(39,40)41)12-15-13-23(46(42,43)44)27(28(38)24(15)25(26)31)37-33-17-4-2-1-3-5-17;;/h1-14,33H,29-31H2,(H,39,40,41)(H,42,43,44);;/q;2*+1/p-2/b35-32?,36-34?,37-27+;;",YMIBJBNQAFRCFJ-DCWIDPHOSA-L,[Na+].[Na+].Nc1ccc(N=Nc2ccc(cc2)N=Nc3c(N)c4C(=O)C(=N/Nc5ccccc5)/C(=Cc4cc3[S]([O-])(=O)=O)[S]([O-])(=O)=O)c(N)c1,-0.82739758500,0.00000000000,1,G1,705.64600,-1.27340,168.38280,48,16,4,20,8,234,4,0,1,5,283.36,317.94116184483,0.00000312500,2229.54385742186
A-4488,disodium 2-[carboxymethyl-[2-[carboxymethyl-(2-oxido-2-oxoethyl)amino]ethyl]amino]acetate,"InChI=1S/C10H16N2O8.2Na/c13-7(14)3-11(4-8(15)16)1-2-12(5-9(17)18)6-10(19)20;;/h1-6H2,(H,13,14)(H,15,16)(H,17,18)(H,19,20);;/q;2*+1/p-2",ZGTMUACCHSMWAC-UHFFFAOYSA-L,[Na+].[Na+].OC(=O)CN(CCN(CC(O)=O)CC([O-])=O)CC([O-])=O,-0.50541874410,0.01380746880,3,G5,336.20800,-10.73260,58.16560,22,8,2,12,11,114,0,0,0,0,161.34,170.19322005219,-0.00000180500,325.12281476499
A-4489,nitromethane,InChI=1S/CH3NO2/c1-2(3)4/h1H3,LYGJENNIWJXYER-UHFFFAOYSA-N,C[N+]([O-])=O,0.23350176550,0.01309911725,2,G3,61.04000,-0.10710,12.91840,4,2,0,3,0,24,0,0,0,0,43.14,23.39222675033,2.80303948767,29.01955000865