ID,Name,InChI,InChIKey,SMILES,Solubility,SD,Ocurrences,Group,MolWt,MolLogP,MolMR,HeavyAtomCount,NumHAcceptors,NumHDonors,NumHeteroatoms,NumRotatableBonds,NumValenceElectrons,NumAromaticRings,NumSaturatedRings,NumAliphaticRings,RingCount,TPSA,LabuteASA,BalabanJ,BertzCT
A-4215,disodium 6-amino-3-sulfo-2-[(E)-2-{4-[(E)-2-(4-sulfonatophenyl)diazen-1-yl]phenyl}diazen-1-yl]naphthalen-1-olate,"InChI=1S/C22H17N5O7S2.2Na/c23-14-1-10-19-13(11-14)12-20(36(32,33)34)21(22(19)28)27-26-16-4-2-15(3-5-16)24-25-17-6-8-18(9-7-17)35(29,30)31;;/h1-12,28H,23H2,(H,29,30,31)(H,32,33,34);;/q;2*+1/p-2",DNDMQQPFVIIALP-UHFFFAOYSA-L,[Na+].[Na+].Nc1ccc2c([O-])c(N=Nc3ccc(cc3)N=Nc4ccc(cc4)[S]([O-])(=O)=O)c(cc2c1)[S](O)(=O)=O,-0.46035408410,0.00000000000,1,G1,571.50400,-1.51480,126.82020,38,11,2,16,6,184,4,0,0,4,210.09,261.33900746705,0.00000253500,1746.15363873748
A-4216,4-(aminomethyl)-2-methoxyphenol hydrochloride,"InChI=1S/C8H11NO2.Cl/c1-11-8-4-6(5-9)2-3-7(8)10;/h2-4,10H,5,9H2,1H3;",LOYPVODLNGWOLM-UHFFFAOYSA-N,[Cl].COc1cc(CN)ccc1O,0.01884625210,0.00000000000,1,G1,188.63400,1.54900,48.40320,12,3,2,4,2,67,1,0,0,1,55.48,77.56205027956,0.00000121000,252.81321812853
A-4217,"disodium 4-{4-[(E)-2-[5-(2-bromoprop-2-enamido)-2-sulfonatophenyl]diazen-1-yl]-3-methyl-5-oxo-4,5-dihydro-1H-pyrazol-1-yl}-2,5-dichlorobenzene-1-sulfonate","InChI=1S/C19H14BrCl2N5O8S2.2Na/c1-8(20)18(28)23-10-3-4-15(36(30,31)32)13(5-10)24-25-17-9(2)26-27(19(17)29)14-6-12(22)16(7-11(14)21)37(33,34)35;;/h3-7,17H,1H2,2H3,(H,23,28)(H,30,31,32)(H,33,34,35);;/q;2*+1/p-2",JVURCOFLRNSPQI-UHFFFAOYSA-L,[Na+].[Na+].CC1=NN(C(=O)C1N=Nc2cc(NC(=O)C(Br)=C)ccc2[S]([O-])(=O)=O)c3cc(Cl)c(cc3Cl)[S]([O-])(=O)=O,-0.55016997540,0.00000000000,1,G1,699.25600,-2.46830,134.42610,39,11,1,20,7,196,2,0,1,3,200.89,284.85078567002,0.00000380250,1638.31223452985
A-4218,"hexasodium 6,13-dichloro-3,10-bis({[2-({4-chloro-6-[(2,4-disulfonatophenyl)amino]-1,3,5-triazin-2-yl}amino)ethyl]amino})-5,12-dioxa-7,14-diazapentacene-4,11-disulfonate","InChI=1S/C40H30Cl4N14O20S6.6Na/c41-25-28-32(78-30-20(50-28)6-8-22(34(30)84(74,75)76)46-10-12-48-38-54-36(44)56-40(58-38)52-18-4-2-16(80(62,63)64)14-24(18)82(68,69)70)26(42)27-31(25)77-29-19(49-27)5-7-21(33(29)83(71,72)73)45-9-11-47-37-53-35(43)55-39(57-37)51-17-3-1-15(79(59,60)61)13-23(17)81(65,66)67;;;;;;/h1-8,13-14,45-46H,9-12H2,(H,59,60,61)(H,62,63,64)(H,65,66,67)(H,68,69,70)(H,71,72,73)(H,74,75,76)(H2,47,51,53,55,57)(H2,48,52,54,56,58);;;;;;/q;6*+1/p-6",LNXCMNGXHAOOOW-UHFFFAOYSA-H,[Na+].[Na+].[Na+].[Na+].[Na+].[Na+].[O-][S](=O)(=O)c1ccc(Nc2nc(Cl)nc(NCCNc3ccc4N=C5C(=C6Oc7c(ccc(NCCNc8nc(Cl)nc(Nc9ccc(cc9[S]([O-])(=O)=O)[S]([O-])(=O)=O)n8)c7[S]([O-])(=O)=O)N=C6C(=C5Oc4c3[S]([O-])(=O)=O)Cl)Cl)n2)c(c1)[S]([O-])(=O)=O,-0.87955401910,0.00000000000,1,G1,1492.86400,-15.23200,281.98740,90,34,6,50,20,444,7,0,2,9,535.90,661.32214962851,0.00000352666,4561.80796290683
A-4221,"tris(2-hydroxypropan-1-aminium) 2-hydroxypropane-1,2,3-tricarboxylate","InChI=1S/C6H8O7.C3H9NO/c7-3(8)1-6(13,5(11)12)2-4(9)10;1-3(5)2-4/h13H,1-2H2,(H,7,8)(H,9,10)(H,11,12);3,5H,2,4H2,1H3",KFAOXEXTCSIFGD-UHFFFAOYSA-N,CC(O)CN.OC(=O)CC(O)(CC(O)=O)C(O)=O,0.86292012680,0.00000000000,1,G1,267.23400,-1.92260,57.82640,18,6,6,9,6,106,0,0,0,0,178.38,102.46024485466,0.00000000000,284.94276074949
A-4223,"2-methylbenzene-1,3-diol","InChI=1S/C7H8O2/c1-5-6(8)3-2-4-7(5)9/h2-4,8-9H,1H3",ZTMADXFOCUXMJE-UHFFFAOYSA-N,Cc1c(O)cccc1O,0.19277272670,0.06681363665,2,G3,124.13900,1.40622,34.50860,9,2,2,2,0,48,1,0,0,1,40.46,53.38481273829,3.24783473374,197.90617759993
A-4224,2-methylbut-3-en-2-ol,"InChI=1S/C5H10O/c1-4-5(2,3)6/h4,6H,1H2,2-3H3",HNVRRHSXBLFLIG-UHFFFAOYSA-N,CC(C)(O)C=C,0.35105723800,0.35687138100,2,G3,86.13400,0.94330,26.49480,6,1,1,1,1,36,0,0,0,0,20.23,38.30365020543,3.44599121352,49.44900955152
A-4225,dilithium adipate,"InChI=1S/C6H10O4.2Li/c7-5(8)3-1-2-4-6(9)10;;/h1-4H2,(H,7,8)(H,9,10);;/q;2*+1/p-2",ZPJGNHUPXGDASP-UHFFFAOYSA-L,[Li+].[Li+].[O-]C(=O)CCCCC([O-])=O,0.08462215270,0.32073771109,5,G5,158.00800,-7.94540,28.48200,12,4,0,6,5,58,0,0,0,0,80.26,95.07060435616,-0.00000040500,121.50977500433
A-4226,dilithium(1+) ion decanedioate,"InChI=1S/C10H18O4.2Li/c11-9(12)7-5-3-1-2-4-6-8-10(13)14;;/h1-8H2,(H,11,12)(H,13,14);;/q;2*+1/p-2",QFFPUGXEOWMNCP-UHFFFAOYSA-L,[Li+].[Li+].[O-]C(=O)CCCCCCCCC([O-])=O,-0.04734789280,0.32073771105,5,G5,214.11600,-6.38500,46.95000,16,4,0,6,9,82,0,0,0,0,80.26,120.53037281374,-0.00000084500,165.65784284662
A-4227,dilithium(1+) ion nonanedioate,"InChI=1S/C9H16O4.2Li/c10-8(11)6-4-2-1-3-5-7-9(12)13;;/h1-7H2,(H,10,11)(H,12,13);;/q;2*+1/p-2",KCEQQLDYFGMIGU-UHFFFAOYSA-L,[Li+].[Li+].[O-]C(=O)CCCCCCCC([O-])=O,-0.01792198500,0.32073771107,5,G5,200.08900,-6.77510,42.33300,15,4,0,6,8,76,0,0,0,0,80.26,114.16543069935,-0.00000072000,155.49527943200
A-4228,"7-amino-4-hydroxy-3-[[4-[(4-sulphophenyl)azo]phenyl]azo]naphthalene-2-sulphonic acid, compound with 2,2',2''-nitrilotriethanol (1:2)","InChI=1S/C22H17N5O7S2.2C6H15NO3/c23-14-1-10-19-13(11-14)12-20(36(32,33)34)21(22(19)28)27-26-16-4-2-15(3-5-16)24-25-17-6-8-18(9-7-17)35(29,30)31;2*8-4-1-7(2-5-9)3-6-10/h1-12,26H,23H2,(H,29,30,31)(H,32,33,34);2*8-10H,1-6H2/b25-24?,27-21-;;",UXTCBUCQMQNXQI-XDJFIHLNSA-N,Nc1ccc2C(=O)C(=N/Nc3ccc(cc3)N=Nc4ccc(cc4)[S](O)(=O)=O)\C(=Cc2c1)[S](O)(=O)=O.OCCN(CCO)CCO.OCCN(CCO)CCO,-0.63590461560,0.00000000000,1,G1,825.92000,0.35460,208.03760,56,18,10,22,18,308,3,0,1,4,328.80,323.60674668823,0.00000044485,1948.58227752029
A-4232,"disodium 7-[(dichloro-1,3,5-triazin-2-yl)amino]-4-hydroxy-3-(2-{4-[2-(sulfonatooxy)ethanesulfonyl]phenyl}diazen-1-yl)naphthalene-2-sulfonate","InChI=1S/C21H16Cl2N6O10S3.2Na/c22-19-25-20(23)27-21(26-19)24-13-3-6-15-11(9-13)10-16(41(33,34)35)17(18(15)30)29-28-12-1-4-14(5-2-12)40(31,32)8-7-39-42(36,37)38;;/h1-6,9-10,30H,7-8H2,(H,33,34,35)(H,36,37,38)(H,24,25,26,27);;/q;2*+1/p-2",QPRQPQPFGRDKCN-UHFFFAOYSA-L,[Na+].[Na+].Oc1c2ccc(Nc3nc(Cl)nc(Cl)n3)cc2cc(c1N=Nc4ccc(cc4)[S](=O)(=O)CCO[S]([O-])(=O)=O)[S]([O-])(=O)=O,-1.57838235740,0.00000000000,1,G1,723.46200,-2.64120,145.02570,44,16,2,23,10,222,4,0,0,4,253.42,304.04550922191,0.00000337500,2035.12386581024
A-4236,"2-hydroxypropanoic acid; 7-{[bis({[3-(diethylamino)propyl]amino})-1,3,5-triazin-2-yl]amino}-4-hydroxy-3-[(E)-2-(2-oxo-2,3-dihydro-1H-1,3-benzodiazol-5-yl)diazen-1-yl]naphthalene-2-sulfonic acid","InChI=1S/C34H46N12O5S.C3H6O3/c1-5-45(6-2)17-9-15-35-31-40-32(36-16-10-18-46(7-3)8-4)42-33(41-31)37-23-11-13-25-22(19-23)20-28(52(49,50)51)29(30(25)47)44-43-24-12-14-26-27(21-24)39-34(48)38-26;1-2(4)3(5)6/h11-14,19-21,47H,5-10,15-18H2,1-4H3,(H2,38,39,48)(H,49,50,51)(H3,35,36,37,40,41,42);2,4H,1H3,(H,5,6)",LAVCAJLTFZEZAW-UHFFFAOYSA-N,CCN(CC)CCCNc1nc(NCCCN(CC)CC)nc(Nc2ccc3c(O)c(N=Nc4ccc5NC(=O)Nc5c4)c(cc3c2)[S](O)(=O)=O)n1.CC(O)C(O)=O,-0.64043406000,0.00000000000,1,G1,824.96600,5.04510,222.73850,58,16,9,21,20,314,5,0,0,5,286.74,335.15693324060,0.00000115040,2303.93521086060
A-4237,tin(4+) disulfate,"InChI=1S/H2O4S.Sn/c1-5(2,3)4;/h(H2,1,2,3,4);/q;+2/p-2",OBBXFSIWZVFYJR-UHFFFAOYSA-L,[Sn++].[O-][S]([O-])(=O)=O,-0.05782385630,0.00000000000,1,G1,214.77400,-1.71880,16.22860,6,4,0,6,0,34,0,0,0,0,80.26,52.08466540400,0.00000000000,90.71649287258
A-4238,"4-[(2,4-dichloro-5-methoxyphenyl)amino]-6-methoxy-7-[3-(4-methylpiperazin-1-yl)propoxy]quinoline-3-carbonitrile","InChI=1S/C26H29Cl2N5O3/c1-32-6-8-33(9-7-32)5-4-10-36-25-13-21-18(11-24(25)35-3)26(17(15-29)16-30-21)31-22-14-23(34-2)20(28)12-19(22)27/h11-14,16H,4-10H2,1-3H3,(H,30,31)",UBPYILGKFZZVDX-UHFFFAOYSA-N,COc1cc(Nc2c(cnc3cc(OCCCN4CCN(C)CC4)c(OC)cc23)C#N)c(Cl)cc1Cl,-4.87955132610,0.18398839265,2,G3,530.45600,5.19038,143.35570,36,8,1,10,9,190,3,1,1,4,82.88,220.80761929084,1.57080663664,1272.89495404361
A-4240,acetaldehyde oxime,"InChI=1S/C2H5NO/c1-2-3-4/h2,4H,1H3/b3-2+",FZENGILVLUJGJX-NSCUHMNNSA-N,C/C=N/O,0.49581946220,0.00000000000,1,G1,59.06800,0.46630,15.95250,4,2,1,2,0,24,0,0,0,0,32.59,24.74778787976,2.54919333848,21.21928094887
A-4241,lithium(1+) ion bromide,InChI=1S/BrH.Li/h1H;/q;+1/p-1,AMXOYNBUYSYVKV-UHFFFAOYSA-M,[Li+].[Br-],1.32370627020,0.00000000000,1,G1,86.84500,-5.99200,0.00000,2,0,0,2,0,8,0,0,0,0,0.00,36.17874539828,0.00000000000,2.00000000000
A-4242,A mixture of RR and RS isomers of: (2-(2-methoxy-1-methyl)ethoxy)-1-methylethyl acetate; (2-(2-methoxy-2-methyl)ethoxy)-1-methylethyl acetate; (2-(2-methoxy-2-methyl)ethoxy)-2-methylethyl acetate; (2-(2-methoxy-1-methyl)ethoxy)-2-methylethyl acetate,"InChI=1S/C9H18O4/c1-4-9(13-8(2)10)12-7-5-6-11-3/h9H,4-7H2,1-3H3",USDXBNSCKZJDLC-UHFFFAOYSA-N,CCC(OCCCOC)OC(C)=O,-0.01684846470,0.01267423235,2,G3,190.23900,1.33870,48.29000,13,4,0,4,7,78,0,0,0,0,44.76,79.16094573157,3.41828638699,135.57639132285
A-4244,sodium dithionite,"InChI=1S/2Na.H2O4S2/c;;1-5(2)6(3)4/h;;(H,1,2)(H,3,4)/q2*+1;/p-2",JVBXVOWTABLYPX-UHFFFAOYSA-L,[Na+].[Na+].[O-][S](=O)[S]([O-])=O,0.01829212870,0.00000000000,1,G1,174.11000,-7.33240,17.83960,8,4,0,8,1,38,0,0,0,0,80.26,95.35605390887,-0.00000012500,78.03910001731
A-4246,(2E)-but-2-enal,"InChI=1S/C4H6O/c1-2-3-4-5/h2-4H,1H3/b3-2-",MLUCVPSAIODCQM-IHWYPQMZSA-N,C\C=C/C=O,0.41201631870,0.00000000000,1,G1,70.09100,0.76140,20.87800,5,1,0,1,1,28,0,0,0,0,17.07,31.30599643888,2.92441819817,45.60964047444
A-4248,"2,3-dimethyloxirane","InChI=1S/C4H8O/c1-3-4(2)5-3/h3-4H,1-2H3",PQXKWPLDPFFDJP-UHFFFAOYSA-N,CC1OC1C,0.39729507790,0.00000000000,1,G1,72.10700,0.79360,20.00900,5,1,0,1,0,30,0,1,1,1,12.53,31.94179144700,2.20344034422,36.91260938324
A-4249,sodium nonyl sulfate,"InChI=1S/C9H20O4S.Na/c1-2-3-4-5-6-7-8-9-13-14(10,11)12;/h2-9H2,1H3,(H,10,11,12);/q;+1/p-1",FTWCSAMTIKSPAT-UHFFFAOYSA-M,[Na+].CCCCCCCCCO[S]([O-])(=O)=O,-0.13619895980,0.00000000000,1,G1,246.30400,-0.78220,53.64220,15,4,0,6,9,86,0,0,0,0,66.43,115.02337268132,0.00000000000,216.15223395576
A-4250,Basic red 1:1,"InChI=1S/C27H29N2O3.ClH/c1-6-28-22-14-24-20(12-16(22)3)26(18-10-8-9-11-19(18)27(30)31-5)21-13-17(4)23(29-7-2)15-25(21)32-24;/h8-15,28-29H,6-7H2,1-5H3;1H/q+1;/p-1",WDTZNHRKHNKDOU-UHFFFAOYSA-M,[Cl-].CCNc1cc2[o+]c3cc(NCC)c(C)cc3c(c2cc1C)c4ccccc4C(=O)OC,-1.39098461090,0.00000000000,1,G1,464.99300,3.80514,132.70390,33,4,2,6,6,172,4,0,0,4,61.66,200.10406507753,0.00000306250,1264.49730873940
A-4252,4-ethoxyaniline,"InChI=1S/C8H11NO/c1-2-10-8-5-3-7(9)4-6-8/h3-6H,2,9H2,1H3",IMPPGHMHELILKG-UHFFFAOYSA-N,CCOc1ccc(N)cc1,-0.86083532600,0.01228409570,2,G3,137.18200,1.66750,42.02340,10,2,1,2,2,54,1,0,0,1,35.25,60.61472327481,2.69380345236,192.91749419417
A-4254,3-(2-chlorophenyl)-3-oxopropanenitrile,"InChI=1S/C9H6ClNO/c10-8-4-2-1-3-7(8)9(12)5-6-11/h1-4H,5H2",SBSWHTFHLWSSQS-UHFFFAOYSA-N,Clc1ccccc1C(=O)CC#N,-2.17513959480,0.00000000000,1,G1,179.60600,2.43638,46.01250,12,2,0,3,2,60,1,0,0,1,40.86,75.38359747108,2.96631224758,340.62692639521
A-4257,2-[(2-methylprop-2-enoyl)oxy]ethyl 3-oxobutanoate,"InChI=1S/C10H14O5/c1-7(2)10(13)15-5-4-14-9(12)6-8(3)11/h1,4-6H2,2-3H3",IBDVWXAVKPRHCU-UHFFFAOYSA-N,CC(=O)CC(=O)OCCOC(=O)C(C)=C,-1.06368220450,0.00000000000,1,G1,214.21700,0.62800,52.03000,15,5,0,5,6,84,0,0,0,0,69.67,88.04578378436,3.54597112053,279.53733522822
A-4258,"1,3-dihydro-2-benzofuran-1-one","InChI=1S/C8H6O2/c9-8-7-4-2-1-3-6(7)5-10-8/h1-4H,5H2",WNZQDUSMALZDQF-UHFFFAOYSA-N,O=C1OCc2ccccc12,-0.86272105280,0.00000000000,1,G1,134.13400,1.35700,35.56150,10,2,0,2,0,50,1,0,1,2,26.30,58.43052352431,2.61006187523,278.34100971528
A-4259,"3-(5-imino-3-methyl-4,5-dihydro-1H-pyrazol-1-yl)benzene-1-sulfonic acid","InChI=1S/C10H11N3O3S/c1-7-5-10(11)13(12-7)8-3-2-4-9(6-8)17(14,15)16/h2-4,6,11H,5H2,1H3,(H,14,15,16)",INHXSMASASFALB-UHFFFAOYSA-N,CC1=NN(C(=N)C1)c2cccc(c2)[S](O)(=O)=O,-1.13878821850,0.00000000000,1,G1,253.28300,1.49657,64.18830,17,4,2,7,2,90,1,0,1,2,93.82,98.82461960916,2.44622684301,606.97706722396
A-4260,1-benzylpiperidin-4-one,"InChI=1S/C12H15NO/c14-12-6-8-13(9-7-12)10-11-4-2-1-3-5-11/h1-5H,6-10H2",SJZKULRDWHPHGG-UHFFFAOYSA-N,O=C1CCN(CC1)Cc2ccccc2,-1.01698285840,0.00000000000,1,G1,189.25800,1.85150,55.96000,14,2,0,2,2,74,1,1,1,2,20.31,84.53658042259,1.89468219902,297.35758485260
A-4264,methyl (2Z)-3-aminobut-2-enoate,"InChI=1S/C5H9NO2/c1-4(6)3-5(7)8-2/h3H,6H2,1-2H3/b4-3+",XKORCTIIRYKLLG-ONEGZZNKSA-N,COC(=O)\C=C(/C)N,-0.80592354390,0.00000000000,1,G1,115.13200,0.02190,29.96040,8,3,1,3,1,46,0,0,0,0,52.32,48.12437447980,3.70164543123,113.59707739382
A-4265,silanedione magnesium sodium hydrofluoride,InChI=1S/FH.Mg.Na.O2Si.2H/c;;;1-3-2;;/h1H;;;;;,DESJYLHXGYGZJG-UHFFFAOYSA-N,F.[Na].[MgH2].O=[Si]=O,-0.85666512740,0.00000000000,1,G1,129.40100,-1.76290,23.92800,6,2,0,6,0,29,0,0,0,0,34.14,74.81418318764,-0.00000000667,34.52932501298
A-4267,"1-N,1-N-bis(2-hydroxyethyl)benzene-1,4-bis(aminium) sulfate","InChI=1S/C10H16N2O2.H2O4S/c11-9-1-3-10(4-2-9)12(5-7-13)6-8-14;1-5(2,3)4/h1-4,13-14H,5-8,11H2;(H2,1,2,3,4)",KMCFMEHSEWDYKG-UHFFFAOYSA-N,Nc1ccc(cc1)N(CCO)CCO.O[S](O)(=O)=O,-0.21841305260,0.00000000000,1,G1,294.32900,-0.59300,71.41640,19,6,5,9,5,110,1,0,0,1,144.32,111.21706824052,0.00000055543,433.59261093714
A-4268,ammonium hydrogen carbonate,"InChI=1S/3CH2O3.2H3N.2Zn/c3*2-1(3)4;;;;/h3*(H2,2,3,4);2*1H3;;/q;;;;;2*+2/p-4",QOPSSYZLVIENBR-UHFFFAOYSA-J,[NH4+].[NH4+].[Zn++].[Zn++].[O-]C([O-])=O.[O-]C([O-])=O.[O-]C([O-])=O,-0.28976176220,0.04600133925,2,G3,346.88200,-6.59360,28.15760,16,9,2,13,0,88,0,0,0,0,262.57,114.76892319001,-0.00000001350,124.30376252380
A-4269,disodium sulfanediide,InChI=1S/2Na.H2S/h;;1H2/q2*+1;/p-1,VDQVEACBQKUUSU-UHFFFAOYSA-M,[Na+].[Na+].[SH-],0.35249065930,0.00000000000,1,G1,79.05500,-6.26210,8.76000,3,1,0,3,0,8,0,0,0,0,0.00,71.38813146030,0.00000000000,2.75488750216
A-4270,nickel(2+) ion diacetate,"InChI=1S/2C2H4O2.Ni/c2*1-2(3)4;/h2*1H3,(H,3,4);/q;;+2/p-2",AIYYMMQIMJOTBM-UHFFFAOYSA-L,[Ni++].CC([O-])=O.CC([O-])=O,0.00053768010,0.00000000000,1,G1,176.78100,-2.49010,21.36200,9,4,0,5,0,56,0,0,0,0,80.26,62.79817284874,-0.00000007200,70.56842503029
A-4271,"1,1,1,3,3,3-hexafluoropropan-2-ol","InChI=1S/C3H2F6O/c4-2(5,6)1(10)3(7,8)9/h1,10H",BYEAHWXPCBROCE-UHFFFAOYSA-N,OC(C(F)(F)F)C(F)(F)F,0.02011033300,0.00000000000,1,G1,168.03600,1.47190,18.11680,10,1,1,7,0,62,0,0,0,0,20.23,51.25658142638,4.23113218620,97.14178630198
A-4274,"trisodium trihydrogen 5,5',5''-(1,3,5-triazine-2,4,6-triyltriimino)tris[5-sulphonatosalicylate]","InChI=1S/C24H24N6O18S3.3Na/c31-13-1-4-22(49(40,41)42,7-10(13)16(34)35)28-19-25-20(29-23(50(43,44)45)5-2-14(32)11(8-23)17(36)37)27-21(26-19)30-24(51(46,47)48)6-3-15(33)12(9-24)18(38)39;;;/h1-3,7-9,31-33H,4-6H2,(H,34,35)(H,36,37)(H,38,39)(H,40,41,42)(H,43,44,45)(H,46,47,48)(H3,25,26,27,28,29,30);;;/q;3*+1/p-3",ZUWXIYHFBSJORS-UHFFFAOYSA-K,[Na+].[Na+].[Na+].OC(=O)C1=CC(CC=C1O)(Nc2nc(NC3(CC=C(O)C(=C3)C(O)=O)[S]([O-])(=O)=O)nc(NC4(CC=C(O)C(=C4)C(O)=O)[S]([O-])(=O)=O)n2)[S]([O-])(=O)=O,-0.68964601140,0.00000000000,1,G1,846.62700,-10.58640,161.12250,54,21,9,30,12,276,1,0,3,4,418.95,369.62468207336,0.00000486000,2030.95929256468
A-4276,calcium diformate,"InChI=1S/2CH2O2.Ca/c2*2-1-3;/h2*1H,(H,2,3);/q;;+2/p-2",CBOCVOKPQGJKKJ-UHFFFAOYSA-L,[Ca++].[O-]C=O.[O-]C=O,0.12121109430,0.00000000000,1,G1,130.11200,-3.64860,17.88200,7,4,0,5,0,36,0,0,0,0,80.26,70.13730399546,-0.00000004000,30.67103446306
A-4277,2-(acetyloxy)ethyl acetate,"InChI=1S/C6H10O4/c1-5(7)9-3-4-10-6(2)8/h3-4H2,1-2H3",JTXMVXSTHSMVQF-UHFFFAOYSA-N,CC(=O)OCCOC(C)=O,0.06847496300,0.01454903963,3,G5,146.14200,0.11260,33.26600,10,4,0,4,3,58,0,0,0,0,52.60,59.11409625891,3.05508993954,113.70950594455
A-4278,"disodium 1-amino-9,10-dihydro-9,10-dioxo-4-[[4-[[2-(sulphonatooxy)ethyl]sulphonyl]phenyl]amino]anthracene-2-sulphonate","InChI=1S/C22H18N2O11S3.2Na/c23-20-17(37(29,30)31)11-16(18-19(20)22(26)15-4-2-1-3-14(15)21(18)25)24-12-5-7-13(8-6-12)36(27,28)10-9-35-38(32,33)34;;/h1-8,11,24H,9-10,23H2,(H,29,30,31)(H,32,33,34);;/q;2*+1/p-2",JALBGZPFNQMHSM-UHFFFAOYSA-L,[Na+].[Na+].Nc1c2C(=O)c3ccccc3C(=O)c2c(Nc4ccc(cc4)[S](=O)(=O)CCO[S]([O-])(=O)=O)cc1[S]([O-])(=O)=O,-0.56396239650,0.01037174584,3,G5,626.55400,-5.04960,129.55130,40,13,2,18,8,200,3,0,1,4,229.96,273.24434466925,0.00000280166,1826.08717994570
A-4281,dioxodiarsoxane,InChI=1S/2As.3O/q2*+3;3*-2,QTLQKAJBUDWPIB-UHFFFAOYSA-N,[O--].[O--].[O--].[As+3].[As+3],-1.04589629620,0.00000000000,1,G1,197.84100,-1.11800,13.56750,5,0,0,5,0,28,0,0,0,0,85.50,52.68317048223,0.00000000000,4.85475297227
A-4282,disodium 2-[(E)-2-(4-{4-[(E)-2-(2-sulfonatophenyl)ethenyl]phenyl}phenyl)ethenyl]benzene-1-sulfonate,"InChI=1S/C28H22O6S2.2Na/c29-35(30,31)27-7-3-1-5-25(27)19-13-21-9-15-23(16-10-21)24-17-11-22(12-18-24)14-20-26-6-2-4-8-28(26)36(32,33)34;;/h1-20H,(H,29,30,31)(H,32,33,34);;/q;2*+1/p-2/b19-13-,20-14-;;",PMPJQLCPEQFEJW-GNTLFSRWSA-L,[Na+].[Na+].[O-][S](=O)(=O)c1ccccc1\C=C/c2ccc(cc2)c3ccc(cc3)\C=C/c4ccccc4[S]([O-])(=O)=O,-1.50466853300,0.00000000000,1,G1,562.57600,-0.48940,138.54440,38,6,0,10,7,182,4,0,0,4,114.40,266.76731939641,0.00000253500,1534.45173052736
A-4283,"1,1,1,3,3,3-hexachloroacetone","InChI=1S/C3Cl6O/c4-2(5,6)1(10)3(7,8)9",DOJXGHGHTWFZHK-UHFFFAOYSA-N,ClC(Cl)(Cl)C(=O)C(Cl)(Cl)Cl,-1.17979792010,0.00000000000,1,G1,264.75000,3.29590,45.58700,10,1,0,7,0,60,0,0,0,0,17.07,87.45025471796,4.39899053972,124.05236848565
A-4285,dibutoxyphosphinic acid,"InChI=1S/C8H19O4P/c1-3-5-7-11-13(9,10)12-8-6-4-2/h3-8H2,1-2H3,(H,9,10)",JYFHYPJRHGVZDY-UHFFFAOYSA-N,CCCCO[P](O)(=O)OCCCC,-1.08725119210,0.00993516250,2,G3,210.21000,2.72020,51.54530,13,3,1,5,8,80,0,0,0,0,55.76,79.86478071429,3.48510768965,146.22301638776
A-4286,methoxyethene,"InChI=1S/C3H6O/c1-3-4-2/h3H,1H2,2H3",XJRBAMWJDBPFIM-UHFFFAOYSA-N,COC=C,-0.53103049730,0.02845242565,2,G3,58.08000,0.77630,17.20600,4,1,0,1,1,24,0,0,0,0,9.23,25.89307745395,2.29683526192,17.24511249784
A-4287,2-ethoxyethyl 2-methylprop-2-enoate,"InChI=1S/C8H14O3/c1-4-10-5-6-11-8(9)7(2)3/h2,4-6H2,1,3H3",SFPNZPQIIAJXGL-UHFFFAOYSA-N,CCOCCOC(=O)C(C)=C,-0.96747386010,0.00000000000,1,G1,158.19700,1.14220,42.26600,11,3,0,3,5,64,0,0,0,0,35.53,66.99285535548,3.24857593142,140.27259690536
A-4291,ethyl 2-chloro-3-oxobutanoate,"InChI=1S/C6H9ClO3/c1-3-10-6(9)5(7)4(2)8/h5H,3H2,1-2H3",RDULEYWUGKOCMR-UHFFFAOYSA-N,CCOC(=O)C(Cl)C(C)=O,-0.98594924650,0.03671167148,3,G5,164.58800,0.74590,36.95500,10,3,0,4,3,58,0,0,0,0,43.37,64.30381725629,3.82319252627,143.92835504489
A-4293,"trisodium 4-{[4-({3-[(4-amino-6-chloro-1,3,5-triazin-2-yl)amino]-4-sulfonatophenyl}amino)-6-chloro-1,3,5-triazin-2-yl]amino}-6-[(E)-2-(5-carbamoyl-1-ethyl-2-hydroxy-4-methyl-6-oxo-1,6-dihydropyridin-3-yl)diazen-1-yl]benzene-1,3-disulfonate","InChI=1S/C27H24Cl2N14O12S3.3Na/c1-3-43-20(45)17(19(30)44)9(2)18(21(43)46)42-41-13-7-12(15(57(50,51)52)8-16(13)58(53,54)55)34-27-38-23(29)37-25(40-27)32-10-4-5-14(56(47,48)49)11(6-10)33-26-36-22(28)35-24(31)39-26;;;/h4-8,41H,3H2,1-2H3,(H2,30,44)(H,47,48,49)(H,50,51,52)(H,53,54,55)(H3,31,33,35,36,39)(H2,32,34,37,38,40);;;/q;3*+1/p-3/b42-18-;;;",FGZWHMWBAASFOQ-YMOXRGJDSA-K,[Na+].[Na+].[Na+].CCN1C(=O)C(=N/Nc2cc(Nc3nc(Cl)nc(Nc4ccc(c(Nc5nc(N)nc(Cl)n5)c4)[S]([O-])(=O)=O)n3)c(cc2[S]([O-])(=O)=O)[S]([O-])(=O)=O)\C(=C(C(N)=O)C1=O)C,-0.75900121250,0.00000000000,1,G1,969.62800,-9.14090,196.05420,61,24,6,34,13,306,4,0,1,5,415.91,420.23134642413,0.00000427111,2840.68217127555
A-4296,1-(diethylamino)propan-2-ol,"InChI=1S/C7H17NO/c1-4-8(5-2)6-7(3)9/h7,9H,4-6H2,1-3H3",BHUXAQIVYLDUQV-UHFFFAOYSA-N,CCN(CC)CC(C)O,0.10211136430,0.00000000000,1,G1,131.21900,0.70900,39.46880,9,2,1,2,4,56,0,0,0,0,23.47,57.48297113661,3.30739408366,59.93649058454
A-4301,ethanethioamide,"InChI=1S/C2H5NS/c1-2(3)4/h1H3,(H2,3,4)",YUKQRDCYNOVPGJ-UHFFFAOYSA-N,CC(N)=S,0.33633953350,0.00000000000,1,G1,75.13600,0.29240,22.45940,4,1,1,2,0,24,0,0,0,0,26.02,30.80286408644,2.80303948767,29.01955000865
A-4303,1-methoxypropan-2-yl acetate,"InChI=1S/C6H12O3/c1-5(4-8-3)9-6(2)7/h5H,4H2,1-3H3",LLHKCFNBLRBOGN-UHFFFAOYSA-N,COCC(C)OC(C)=O,0.08302323880,0.12393538542,3,G5,132.15900,0.58440,33.10400,9,3,0,3,3,54,0,0,0,0,35.53,54.95257415887,3.25923148913,90.30376252380