ID,Name,InChI,InChIKey,SMILES,Solubility,SD,Ocurrences,Group,MolWt,MolLogP,MolMR,HeavyAtomCount,NumHAcceptors,NumHDonors,NumHeteroatoms,NumRotatableBonds,NumValenceElectrons,NumAromaticRings,NumSaturatedRings,NumAliphaticRings,RingCount,TPSA,LabuteASA,BalabanJ,BertzCT
A-2692,"1,6-bis(2-methylheptyl) hexanedioate","InChI=1S/C22H42O4/c1-19(2)13-7-5-11-17-25-21(23)15-9-10-16-22(24)26-18-12-6-8-14-20(3)4/h19-20H,5-18H2,1-4H3",CJFLBOQMPJCWLR-UHFFFAOYSA-N,CC(C)CCCCCOC(=O)CCCCC(=O)OCCCCCC(C)C,-6.86990494100,0.00000000000,1,G1,370.57400,6.06600,106.99800,26,4,0,4,17,154,0,0,0,0,52.60,160.95317008926,3.35856782036,316.05141026667
A-2693,1-(octadecyloxy)octadecane,"InChI=1S/C36H74O/c1-3-5-7-9-11-13-15-17-19-21-23-25-27-29-31-33-35-37-36-34-32-30-28-26-24-22-20-18-16-14-12-10-8-6-4-2/h3-36H2,1-2H3",HBXWUCXDUUJDRB-UHFFFAOYSA-N,CCCCCCCCCCCCCCCCCCOCCCCCCCCCCCCCCCCCC,-7.01952088930,0.00000000000,1,G1,522.98700,13.52600,169.91100,37,1,0,1,34,224,0,0,0,0,9.23,236.62577026122,3.00415683212,331.68228566250
A-2694,"2,2-bis[(heptanoyloxy)methyl]butyl heptanoate (non-preferred name)","InChI=1S/C27H50O6/c1-5-9-12-15-18-24(28)31-21-27(8-4,22-32-25(29)19-16-13-10-6-2)23-33-26(30)20-17-14-11-7-3/h5-23H2,1-4H3",UQJDVLPHTXQTRP-UHFFFAOYSA-N,CCCCCCC(=O)OCC(CC)(COC(=O)CCCCCC)COC(=O)CCCCCC,-6.97376589000,0.00000000000,1,G1,470.69100,6.92360,131.87800,33,6,0,6,22,194,0,0,0,0,78.90,202.05294799079,4.78193964649,447.41765580088
A-2695,"2,2-dimethyl-3-[(9Z)-octadec-9-enoyloxy]propyl (9Z)-octadec-9-enoate","InChI=1S/C41H76O4/c1-5-7-9-11-13-15-17-19-21-23-25-27-29-31-33-35-39(42)44-37-41(3,4)38-45-40(43)36-34-32-30-28-26-24-22-20-18-16-14-12-10-8-6-2/h19-22H,5-18,23-38H2,1-4H3/b21-19-,22-20-",AMZKGJLFYCZDMJ-WRBBJXAJSA-N,CCCCCCCC\C=C/CCCCCCCC(=O)OCC(C)(C)COC(=O)CCCCCCC\C=C/CCCCCCCC,-7.10247143890,0.00000000000,1,G1,633.05500,13.17400,194.60300,45,4,0,4,34,264,0,0,0,0,52.60,280.50786419843,3.57739998062,650.30062861852
A-2696,"2,2-dimethylpropane-1,3-diyl dioctanoate","InChI=1S/C21H40O4/c1-5-7-9-11-13-15-19(22)24-17-21(3,4)18-25-20(23)16-14-12-10-8-6-2/h5-18H2,1-4H3",WFXHUBZUIFLWCV-UHFFFAOYSA-N,CCCCCCCC(=O)OCC(C)(C)COC(=O)CCCCCCC,-6.85314678230,0.83137891585,2,G2,356.54700,5.82000,102.45100,25,4,0,4,16,148,0,0,0,0,52.60,154.58822797486,3.74030063478,317.80521207104
A-2698,"2-Butenedioic acid (E)-, di-C16-18-alkyl esters","InChI=1S/C38H72O4/c1-3-5-7-9-11-13-15-17-19-21-23-25-27-29-31-35-41-37(39)33-34-38(40)42-36-32-30-28-26-24-22-20-18-16-14-12-10-8-6-4-2/h33-34H,3-32,35-36H2,1-2H3/b34-33+",ZUWLIWZVBOETHU-JEIPZWNWSA-N,CCCCCCCCCCCCCCCCCOC(=O)/C=C/C(=O)OCCCCCCCCCCCCCCCCC,-7.07407736530,0.00000000000,1,G1,592.99000,12.37180,180.91600,42,4,0,4,34,248,0,0,0,0,52.60,262.10264088742,3.33361250916,535.64347112694
A-2699,2-bromo-N-[4-chloro-2-(2-chlorobenzoyl)phenyl]acetamide,"InChI=1S/C15H10BrCl2NO2/c16-8-14(20)19-13-6-5-9(17)7-11(13)15(21)10-3-1-2-4-12(10)18/h1-7H,8H2,(H,19,20)",JQMAWYRGSOSWNJ-UHFFFAOYSA-N,Clc1ccc(NC(=O)CBr)c(c1)C(=O)c2ccccc2Cl,-6.88880828790,0.00000000000,1,G1,387.06000,4.55780,88.76020,21,2,1,6,4,108,2,0,0,2,46.17,139.93031011185,2.46830465931,703.82301485145
A-2701,"2-ethyl-2-[[(1-oxoisooctadecyl)oxy]methyl]-1,3-propanediyl bis(isooctadecanoate)","InChI=1S/C60H116O6/c1-8-60(51-64-57(61)48-42-36-30-24-18-12-9-15-21-27-33-39-45-54(2)3,52-65-58(62)49-43-37-31-25-19-13-10-16-22-28-34-40-46-55(4)5)53-66-59(63)50-44-38-32-26-20-14-11-17-23-29-35-41-47-56(6)7/h54-56H,8-53H2,1-7H3",RKJGFHYCZPZJPE-UHFFFAOYSA-N,CCC(COC(=O)CCCCCCCCCCCCCCC(C)C)(COC(=O)CCCCCCCCCCCCCCC(C)C)COC(=O)CCCCCCCCCCCCCCC(C)C,-7.27118246530,0.00000000000,1,G1,933.58200,19.36460,284.02900,66,6,0,6,52,392,0,0,0,0,78.90,412.09603776588,4.54694785155,925.26336733577
A-2702,2-ethylhexyl octadecanoate,"InChI=1S/C26H52O2/c1-3-5-7-9-11-12-13-14-15-16-17-18-19-20-22-24-26(27)28-25-23-21-10-8-6-4-2/h3-25H2,1-2H3",IIGMITQLXAGZTL-UHFFFAOYSA-N,CCCCCCCCCCCCCCCCCC(=O)OCCCCCCCC,-6.89949219610,0.00000000000,1,G1,396.70000,9.15160,123.88100,28,2,0,2,23,168,0,0,0,0,26.30,177.13787121730,3.11180556305,300.80794088246
A-2703,2-tetradecyloxirane,"InChI=1S/C16H32O/c1-2-3-4-5-6-7-8-9-10-11-12-13-14-16-15-17-16/h16H,2-15H2,1H3",DSZTYVZOIUIIGA-UHFFFAOYSA-N,CCCCCCCCCCCCCCC1CO1,-6.68202045840,1.65051499780,2,G2,240.43100,5.47640,75.43500,17,1,0,1,13,102,0,1,1,1,12.53,108.32109681976,1.60754922625,151.60416835318
A-2704,"3-(3,5-di-tert-butyl-4-hydroxyphenyl)-N'-[3-(3,5-di-tert-butyl-4-hydroxyphenyl)propanoyl]propanehydrazide","InChI=1S/C34H52N2O4/c1-31(2,3)23-17-21(18-24(29(23)39)32(4,5)6)13-15-27(37)35-36-28(38)16-14-22-19-25(33(7,8)9)30(40)26(20-22)34(10,11)12/h17-20,39-40H,13-16H2,1-12H3,(H,35,37)(H,36,38)",HCILJBJJZALOAL-UHFFFAOYSA-N,CC(C)(C)c1cc(CCC(=O)NNC(=O)CCc2cc(c(O)c(c2)C(C)(C)C)C(C)(C)C)cc(c1O)C(C)(C)C,-7.04359803000,0.65051499780,2,G2,552.80000,7.00060,163.94100,40,4,4,6,6,222,2,0,0,2,98.66,241.49859593422,2.03988244304,1065.03429204735
A-2705,"3-(heptanoyloxy)-2,2-bis[(heptanoyloxy)methyl]propyl heptanoate","InChI=1S/C33H60O8/c1-5-9-13-17-21-29(34)38-25-33(26-39-30(35)22-18-14-10-6-2,27-40-31(36)23-19-15-11-7-3)28-41-32(37)24-20-16-12-8-4/h5-28H2,1-4H3",NCGQPNAQUYGWMI-UHFFFAOYSA-N,CCCCCCC(=O)OCC(COC(=O)CCCCCC)(COC(=O)CCCCCC)COC(=O)CCCCCC,-7.06806335120,0.00000000000,1,G1,584.83500,8.02720,161.30500,41,8,0,8,28,240,0,0,0,0,105.20,249.51766800672,5.46530009283,573.21064668098
A-2706,"3-(oleoyloxy)-2,2-bis[(oleoyloxy)methyl]propyl octadec-9-enoate (non-preferred name)","InChI=1S/C77H140O8/c1-5-9-13-17-21-25-29-33-37-41-45-49-53-57-61-65-73(78)82-69-77(70-83-74(79)66-62-58-54-50-46-42-38-34-30-26-22-18-14-10-6-2,71-84-75(80)67-63-59-55-51-47-43-39-35-31-27-23-19-15-11-7-3)72-85-76(81)68-64-60-56-52-48-44-40-36-32-28-24-20-16-12-8-4/h33-40H,5-32,41-72H2,1-4H3/b37-33-,38-34-,39-35-,40-36-",QTIMEBJTEBWHOB-PMDAXIHYSA-N,CCCCCCCC\C=C/CCCCCCCC(=O)OCC(COC(=O)CCCCCCC\C=C/CCCCCCCC)(COC(=O)CCCCCCC\C=C/CCCCCCCC)COC(=O)CCCCCCC\C=C/CCCCCCCC,-7.37801940920,0.00000000000,1,G1,1193.95900,24.29560,364.07700,85,8,0,8,68,496,0,0,0,0,105.20,526.81670891144,5.51395282146,1332.64481416343
A-2707,"3-[(3-methylnonadecanoyl)oxy]-2,2-bis({[(3-methylnonadecanoyl)oxy]methyl})propyl 3-methylnonadecanoate","InChI=1S/C77H148O8/c1-69(2)57-49-41-33-25-17-9-13-21-29-37-45-53-61-73(78)82-65-77(66-83-74(79)62-54-46-38-30-22-14-10-18-26-34-42-50-58-70(3)4,67-84-75(80)63-55-47-39-31-23-15-11-19-27-35-43-51-59-71(5)6)68-85-76(81)64-56-48-40-32-24-16-12-20-28-36-44-52-60-72(7)8/h69-72H,9-68H2,1-8H3",LPGFSDGXTDNTCB-UHFFFAOYSA-N,CC(C)CCCCCCCCCCCCCCC(=O)OCC(COC(=O)CCCCCCCCCCCCCCC(C)C)(COC(=O)CCCCCCCCCCCCCCC(C)C)COC(=O)CCCCCCCCCCCCCCC(C)C,-7.38094277340,0.00000000000,1,G1,1202.02300,24.61520,364.17300,85,8,0,8,68,504,0,0,0,0,105.20,529.57512104017,5.42534609757,1225.06502730126
A-2708,"3-hydroxy-2,2-dimethylpropyl heptanoate","InChI=1S/C7H14O2.C5H12O2/c1-2-3-4-5-6-7(8)9;1-5(2,3-6)4-7/h2-6H2,1H3,(H,8,9);6-7H,3-4H2,1-2H3",VRYUGRNJSPQWJC-UHFFFAOYSA-N,CCCCCCC(O)=O.CC(C)(CO)CO,-6.67086900810,0.00000000000,1,G1,234.33600,2.03860,64.34740,16,3,3,4,7,98,0,0,0,0,77.76,98.30366879635,0.00000000000,160.40169550220
A-2709,3-hydroxy-2-(hydroxymethyl)-2-{[(9Z)-octadec-9-enoyloxy]methyl}propyl (9Z)-octadec-9-enoate,"InChI=1S/C41H76O6/c1-3-5-7-9-11-13-15-17-19-21-23-25-27-29-31-33-39(44)46-37-41(35-42,36-43)38-47-40(45)34-32-30-28-26-24-22-20-18-16-14-12-10-8-6-4-2/h17-20,42-43H,3-16,21-38H2,1-2H3/b19-17+,20-18+",BJXXCOMGRRCAGN-XPWSMXQVSA-N,CCCCCCCC/C=C/CCCCCCCC(=O)OCC(CO)(CO)COC(=O)CCCCCCC\C=C\CCCCCCCC,-7.12388625250,0.00000000000,1,G1,665.05300,11.11880,197.42660,47,6,2,6,36,276,0,0,0,0,93.06,290.09633170282,3.80655767986,684.21661132315
A-2710,3-methylbutyl dodecanoate,"InChI=1S/C17H34O2/c1-4-5-6-7-8-9-10-11-12-13-17(18)19-15-14-16(2)3/h16H,4-15H2,1-3H3",FVKRIDSRWFEQME-UHFFFAOYSA-N,CCCCCCCCCCCC(=O)OCCC(C)C,-6.73312822200,0.00000000000,1,G1,270.45700,5.49660,82.25800,19,2,0,2,13,114,0,0,0,0,26.30,119.85339218773,3.14074178953,199.43874567421
A-2712,"Decanoic acid, mixed diesters with octanoic acid and propylene glycol","InChI=1S/C10H20O2.C8H16O2.C3H8O2/c1-2-3-4-5-6-7-8-9-10(11)12;1-2-3-4-5-6-7-8(9)10;1-3(5)2-4/h2-9H2,1H3,(H,11,12);2-7H2,1H3,(H,9,10);3-5H,2H2,1H3",YZWQUQVFVLJWCS-UHFFFAOYSA-N,CCCCCCCCCC(O)=O.CCCCCCCC(O)=O.CC(O)CO,-6.89495484760,0.00000000000,1,G1,392.57700,5.00270,110.02420,27,4,4,6,15,164,0,0,0,0,115.06,165.54973483169,-0.00000034670,305.04695741224
A-2713,"Decanoic acid, mixed esters with octanoic acid and pentaerythritol","InChI=1S/C10H20O2.C8H16O2.C5H12O4/c1-2-3-4-5-6-7-8-9-10(11)12;1-2-3-4-5-6-7-8(9)10;6-1-5(2-7,3-8)4-9/h2-9H2,1H3,(H,11,12);2-7H2,1H3,(H,9,10);6-9H,1-4H2",GFFYVKLAGBXHIN-UHFFFAOYSA-N,CCCCCCCCCC(O)=O.CCCCCCCC(O)=O.OCC(CO)(CO)CO,-6.95677237150,0.00000000000,1,G1,452.62900,3.58520,122.03380,31,6,6,8,18,188,0,0,0,0,155.52,187.86808656488,-0.00000038392,366.26298573220
A-2714,"Fatty acids, C5-9, hexaesters with dipentaerythritol","InChI=1S/C15H30O8/c1-2-3-4-13(21)23-12-15(8-19,9-20)11-22-10-14(5-16,6-17)7-18/h16-20H,2-12H2,1H3",ITJIINAVMOBHSF-UHFFFAOYSA-N,CCCCC(=O)OCC(CO)(CO)COCC(CO)(CO)CO,-6.83045649990,0.00000000000,1,G1,338.39700,-1.32930,81.59800,23,8,5,8,14,138,0,0,0,0,136.68,136.20822194942,4.50355265434,304.33407479268
A-2715,"N,N'-bis(2,6-diisopropylphenyl)carbodiimide","InChI=1S/C25H34N2/c1-16(2)20-11-9-12-21(17(3)4)24(20)26-15-27-25-22(18(5)6)13-10-14-23(25)19(7)8/h9-14,16-19H,1-8H3",XLDBGFGREOMWSL-UHFFFAOYSA-N,CC(C)c1cccc(C(C)C)c1N=C=Nc2c(cccc2C(C)C)C(C)C,-6.86041108170,0.00000000000,1,G1,362.56100,8.31730,118.42300,27,2,0,2,6,144,2,0,0,2,24.72,165.02338978444,2.61744689544,715.39752766819
A-2718,butyl hexadecanoate butyl octadecanoate,"InChI=1S/C22H44O2.C20H40O2/c1-3-5-7-8-9-10-11-12-13-14-15-16-17-18-19-20-22(23)24-21-6-4-2;1-3-5-7-8-9-10-11-12-13-14-15-16-17-18-20(21)22-19-6-4-2/h3-21H2,1-2H3;3-19H2,1-2H3",FQWCYZXAJQAXBD-UHFFFAOYSA-N,CCCCCCCCCCCCCCCCCC(=O)OCCCC.CCCCCCCCCCCCCCCC(=O)OCCCC,-7.11602962820,0.00000000000,1,G1,653.13000,14.40220,201.59200,46,4,0,4,36,276,0,0,0,0,52.60,289.25784353072,0.00000000000,575.99213719939
A-2720,diisodecyl azelate,"InChI=1S/C29H56O4/c1-26(2)20-14-8-6-12-18-24-32-28(30)22-16-10-5-11-17-23-29(31)33-25-19-13-7-9-15-21-27(3)4/h26-27H,5-25H2,1-4H3",WLLCYXDFVBWGBU-UHFFFAOYSA-N,CC(C)CCCCCCCOC(=O)CCCCCCCC(=O)OCCCCCCCC(C)C,-6.97198332070,0.00000000000,1,G1,468.76300,8.79670,139.31700,33,4,0,4,24,196,0,0,0,0,52.60,205.50776489004,3.29190831911,404.90282145881
A-2721,ditetradecyl but-2-enedioate,"InChI=1S/C32H60O4/c1-3-5-7-9-11-13-15-17-19-21-23-25-29-35-31(33)27-28-32(34)36-30-26-24-22-20-18-16-14-12-10-8-6-4-2/h27-28H,3-26,29-30H2,1-2H3/b28-27+",DYVHFPDDBMMBAX-BYYHNAKLSA-N,CCCCCCCCCCCCCCOC(=O)\C=C\C(=O)OCCCCCCCCCCCCCC,-7.00760099750,0.00000000000,1,G1,508.82800,10.03120,153.21400,36,4,0,4,28,212,0,0,0,0,52.60,223.91298820104,3.36636443989,456.38407872159
A-2722,docosanamide,"InChI=1S/C22H45NO/c1-2-3-4-5-6-7-8-9-10-11-12-13-14-15-16-17-18-19-20-21-22(23)24/h2-21H2,1H3,(H2,23,24)",ORAWFNKFUWGRJG-UHFFFAOYSA-N,CCCCCCCCCCCCCCCCCCCCCC(N)=O,-6.83200790780,0.00000000000,1,G1,339.60800,7.29360,107.20840,24,1,1,2,20,144,0,0,0,0,43.09,151.90444822721,2.96537893864,252.35446975062
A-2723,docosyl docosanoate,"InChI=1S/C44H88O2/c1-3-5-7-9-11-13-15-17-19-21-23-25-27-29-31-33-35-37-39-41-43-46-44(45)42-40-38-36-34-32-30-28-26-24-22-20-18-16-14-12-10-8-6-4-2/h3-43H2,1-2H3",NJIMZDGGLTUCPX-UHFFFAOYSA-N,CCCCCCCCCCCCCCCCCCCCCCOC(=O)CCCCCCCCCCCCCCCCCCCCC,-7.11339914120,0.00000000000,1,G1,649.18600,16.17340,206.98700,46,2,0,2,41,276,0,0,0,0,26.30,291.70682927643,3.13867201940,544.02525882781
A-2724,dodecyl (9Z)-octadec-9-enoate,"InChI=1S/C30H58O2/c1-3-5-7-9-11-13-15-16-17-18-19-20-22-24-26-28-30(31)32-29-27-25-23-21-14-12-10-8-6-4-2/h16-17H,3-15,18-29H2,1-2H3/b17-16+",OXPCWUWUWIWSGI-WUKNDPDISA-N,CCCCCCCCCCCCOC(=O)CCCCCCC\C=C\CCCCCCCC,-6.95500619590,0.00000000000,1,G1,450.79200,10.48800,142.25500,32,2,0,2,26,190,0,0,0,0,26.30,201.90803664270,3.19550278779,388.29283118829
A-2725,ethyl (9Z)-hexadec-9-enoate ethyl (9Z)-octadec-9-enoate ethyl hexadecanoate ethyl tetradecanoate,"InChI=1S/C20H38O2.C18H36O2.C18H34O2.C16H32O2/c1-3-5-6-7-8-9-10-11-12-13-14-15-16-17-18-19-20(21)22-4-2;2*1-3-5-6-7-8-9-10-11-12-13-14-15-16-17-18(19)20-4-2;1-3-5-6-7-8-9-10-11-12-13-14-15-16(17)18-4-2/h11-12H,3-10,13-19H2,1-2H3;3-17H2,1-2H3;9-10H,3-8,11-17H2,1-2H3;3-15H2,1-2H3/b12-11-;;10-9-;",RYYGJLVSNHAPGS-KHGNKIMXSA-N,CCCCCCCCCCCCCCCC(=O)OCC.CCCCCCCCCCCCCC(=O)OCC.CCCCCCCC\C=C/CCCCCCCC(=O)OCC.CCCCCC\C=C/CCCCCCCC(=O)OCC,-7.35560628300,0.00000000000,1,G1,1133.90400,23.67520,347.59200,80,8,0,8,58,476,0,0,0,0,105.20,499.38869786441,-0.00000048245,1245.78235160253
A-2726,hexadecyl 2-ethylhexanoate,"InChI=1S/C24H48O2/c1-4-7-9-10-11-12-13-14-15-16-17-18-19-20-22-26-24(25)23(6-3)21-8-5-2/h23H,4-22H2,1-3H3",XJNUECKWDBNFJV-UHFFFAOYSA-N,CCCCCCCCCCCCCCCCOC(=O)C(CC)CCCC,-6.86763952160,0.00000000000,1,G1,368.64600,8.22730,114.57700,26,2,0,2,20,156,0,0,0,0,26.30,164.40798698850,3.26810154808,287.93523037176
A-2727,hexyl dodecanoate,"InChI=1S/C18H36O2/c1-3-5-7-9-10-11-12-13-14-16-18(19)20-17-15-8-6-4-2/h3-17H2,1-2H3",CMBYOWLFQAFZCP-UHFFFAOYSA-N,CCCCCCCCCCCC(=O)OCCCCCC,-6.75508784140,0.00000000000,1,G1,284.48400,6.03080,86.94500,20,2,0,2,15,120,0,0,0,0,26.30,126.21833430212,3.11158110180,201.59490309183
A-2728,"isooctadecanoic acid, monoester with glycerol","InChI=1S/C21H42O4/c1-19(2)15-13-11-9-7-5-3-4-6-8-10-12-14-16-21(24)25-20(17-22)18-23/h19-20,22-23H,3-18H2,1-2H3",MQXVQTFGCRTCRG-UHFFFAOYSA-N,CC(C)CCCCCCCCCCCCCCC(=O)OC(CO)CO,-6.85559546850,0.00000000000,1,G1,358.56300,5.00020,103.52760,25,4,2,4,18,150,0,0,0,0,66.76,154.90162814970,3.19794852470,287.62063658341
A-2729,magnesium diniobate,InChI=1S/2Mg.2Nb.7O/q2*+2;2*+5;7*-2,CWMQWEHVVUJOBW-UHFFFAOYSA-N,[O--].[O--].[O--].[O--].[O--].[O--].[O--].[Mg++].[Mg++].[Nb+5].[Nb+5],-6.84062668470,0.00000000000,1,G1,346.41500,-1.59820,16.31350,11,0,0,11,0,56,0,0,0,0,199.50,127.54034908158,0.00000000000,14.40226335061
A-2730,octadec-9-en-1-yl docos-13-enoate,"InChI=1S/C40H76O2/c1-3-5-7-9-11-13-15-17-19-21-22-23-24-26-28-30-32-34-36-38-40(41)42-39-37-35-33-31-29-27-25-20-18-16-14-12-10-8-6-4-2/h17-20H,3-16,21-39H2,1-2H3/b19-17-,20-18-",SZAMSYKZCSDVBH-CLFAGFIQSA-N,CCCCCCCC\C=C/CCCCCCCCCCCC(=O)OCCCCCCCC\C=C/CCCCCCCC,-7.07117920690,0.00000000000,1,G1,589.04600,14.16500,188.33100,42,2,0,2,35,248,0,0,0,0,26.30,264.86785475448,3.21308440310,563.98582693869
A-2731,octadec-9-en-1-yl octadec-9-enoate,"InChI=1S/C36H68O2/c1-3-5-7-9-11-13-15-17-19-21-23-25-27-29-31-33-35-38-36(37)34-32-30-28-26-24-22-20-18-16-14-12-10-8-6-4-2/h17,19-20,22H,3-16,18,21,23-35H2,1-2H3/b19-17-,22-20-",ZWHZXVJDSAKMBA-MGXYOJEMSA-N,CCCCCCCCC\C=C/CCCCCCC(=O)OCCCCCCCC\C=C/CCCCCCCC,-7.02770668340,0.00000000000,1,G1,532.93800,12.60460,169.86300,38,2,0,2,31,224,0,0,0,0,26.30,239.40808629689,3.23372691906,507.47164541618
A-2732,octyl octanoate,"InChI=1S/C16H32O2/c1-3-5-7-9-11-13-15-18-16(17)14-12-10-8-6-4-2/h3-15H2,1-2H3",DJNTZVRUYMHBTD-UHFFFAOYSA-N,CCCCCCCCOC(=O)CCCCCCC,-6.70999882800,0.00000000000,1,G1,256.43000,5.25060,77.71100,18,2,0,2,13,108,0,0,0,0,26.30,113.48845007333,3.11890048796,177.93577382146
A-2733,tetradecyl octadec-9-enoate,"InChI=1S/C32H62O2/c1-3-5-7-9-11-13-15-17-18-19-20-22-24-26-28-30-32(33)34-31-29-27-25-23-21-16-14-12-10-8-6-4-2/h17-18H,3-16,19-31H2,1-2H3/b18-17-",DHZWALZKPWZSMA-ZCXUNETKSA-N,CCCCCCCCCCCCCCOC(=O)CCCCCCC\C=C/CCCCCCCC,-6.98122585960,0.00000000000,1,G1,478.84600,11.26820,151.48900,34,2,0,2,28,202,0,0,0,0,26.30,214.63792087149,3.19239208059,415.23510967377
A-2734,"tris(2-ethylhexyl) 2-acetoxypropane-1,2,3-tricarboxylate","InChI=1S/C32H58O8/c1-8-14-17-26(11-4)22-37-29(34)20-32(40-25(7)33,31(36)39-24-28(13-6)19-16-10-3)21-30(35)38-23-27(12-5)18-15-9-2/h26-28H,8-24H2,1-7H3",FRDNONBEXWDRDM-UHFFFAOYSA-N,CCCCC(CC)COC(=O)CC(CC(=O)OCC(CC)CCCC)(OC(C)=O)C(=O)OCC(CC)CCCC,-7.05752004690,0.00000000000,1,G1,570.80800,7.34730,156.52600,40,8,0,8,24,234,0,0,0,0,105.20,243.15272589233,5.81843327399,685.70399526852
A-2736,"2-(2H-1,2,3-benzotriazol-2-yl)-4,6-bis(2-phenylpropan-2-yl)phenol","InChI=1S/C30H29N3O/c1-29(2,21-13-7-5-8-14-21)23-19-24(30(3,4)22-15-9-6-10-16-22)28(34)27(20-23)33-31-25-17-11-12-18-26(25)32-33/h5-20,34H,1-4H3",OLFNXLXEGXRUOI-UHFFFAOYSA-N,CC(C)(c1ccccc1)c2cc(n3nc4ccccc4n3)c(O)c(c2)C(C)(C)c5ccccc5,-7.04881262130,0.45154499345,2,G3,447.58200,6.77790,137.66980,34,4,1,4,5,170,5,0,0,5,50.94,200.06357171431,1.77660778003,1417.97622347924
A-2737,"4,4',4''-butane-1,1,3-triyltris(2-tert-butyl-5-methylphenol)","InChI=1S/C37H52O3/c1-21(25-18-29(35(5,6)7)32(38)15-22(25)2)14-28(26-19-30(36(8,9)10)33(39)16-23(26)3)27-20-31(37(11,12)13)34(40)17-24(27)4/h15-21,28,38-40H,14H2,1-13H3",PRWJPWSKLXYEPD-UHFFFAOYSA-N,CC(CC(c1cc(c(O)cc1C)C(C)(C)C)c2cc(c(O)cc2C)C(C)(C)C)c3cc(c(O)cc3C)C(C)(C)C,-7.13419305050,0.00000000000,1,G1,544.82000,9.94686,169.50640,40,3,3,3,5,218,3,0,0,3,60.69,242.86219296175,2.29707247342,1321.60935327617
A-2738,"4-[(E)-2-(5-cyano-2-hydroxy-1,4-dimethyl-6-oxo-1,6-dihydropyridin-3-yl)diazen-1-yl]-N-(2-ethylhexyl)benzamide","InChI=1S/C23H29N5O3/c1-5-7-8-16(6-2)14-25-21(29)17-9-11-18(12-10-17)26-27-20-15(3)19(13-24)22(30)28(4)23(20)31/h9-12,16,26H,5-8,14H2,1-4H3,(H,25,29)/b27-20-",ATCLRTKFQOUIKP-OOAXWGSJSA-N,CCCCC(CC)CNC(=O)c1ccc(N\N=C2\C(=C(C#N)C(=O)N(C)C2=O)C)cc1,-7.02481085630,0.00000000000,1,G1,423.51700,3.23938,119.22890,31,6,2,8,9,164,1,0,1,2,114.66,182.54214740364,2.04649695188,940.95378425664
A-2739,"5-[(E)-2-(3,4-dichlorophenyl)diazen-1-yl]-6-hydroxy-1,4-dimethyl-2-oxo-1,2-dihydropyridine-3-carbonitrile","InChI=1S/C14H10Cl2N4O2/c1-7-9(6-17)13(21)20(2)14(22)12(7)19-18-8-3-4-10(15)11(16)5-8/h3-5,18H,1-2H3/b19-12+",XJQKXIISBODNEJ-XDHOZWIPSA-N,CN1C(=O)C(=N/Nc2ccc(Cl)c(Cl)c2)/C(=C(C#N)C1=O)C,-6.92578378230,0.00000000000,1,G1,337.16600,2.59998,83.60970,22,5,1,8,2,112,1,0,1,2,85.56,136.15281654418,2.39085031043,777.53778313624
A-2740,"tris[(3,5-di-tert-butyl-4-hydroxyphenyl)methyl]-1,3,5-triazinane-2,4,6-trione","InChI=1S/C48H69N3O6/c1-43(2,3)31-19-28(20-32(37(31)52)44(4,5)6)25-49-40(55)50(26-29-21-33(45(7,8)9)38(53)34(22-29)46(10,11)12)42(57)51(41(49)56)27-30-23-35(47(13,14)15)39(54)36(24-30)48(16,17)18/h19-24,52-54H,25-27H2,1-18H3",VNQNXQYZMPJLQX-UHFFFAOYSA-N,CC(C)(C)c1cc(CN2C(=O)N(Cc3cc(c(O)c(c3)C(C)(C)C)C(C)(C)C)C(=O)N(Cc4cc(c(O)c(c4)C(C)(C)C)C(C)(C)C)C2=O)cc(c1O)C(C)(C)C,-7.29230869310,0.69897000430,2,G2,784.09500,9.21840,233.04840,57,9,3,9,6,312,4,0,0,4,126.69,339.61224878574,2.11642300035,1964.32492204302
A-2741,2-benzoyl-5-[3-(4-benzoyl-3-hydroxyphenoxy)-2-hydroxypropoxy]phenol,"InChI=1S/C29H24O7/c30-21(17-35-22-11-13-24(26(31)15-22)28(33)19-7-3-1-4-8-19)18-36-23-12-14-25(27(32)16-23)29(34)20-9-5-2-6-10-20/h1-16,21,30-32H,17-18H2",VZYBFCDYFROPPK-UHFFFAOYSA-N,OC(COc1ccc(c(O)c1)C(=O)c2ccccc2)COc3ccc(c(O)c3)C(=O)c4ccccc4,-7.13875470340,0.00000000000,1,G1,484.50400,4.37850,132.95940,36,7,3,7,10,182,4,0,0,4,113.29,207.36023222536,1.29886370052,1245.92379050453
A-2742,(2-methyldodecyl)(tridecyl)amine; ditridecylamine,"InChI=1S/2C26H55N/c1-4-6-8-10-12-14-15-16-18-20-22-24-27-25-26(3)23-21-19-17-13-11-9-7-5-2;1-3-5-7-9-11-13-15-17-19-21-23-25-27-26-24-22-20-18-16-14-12-10-8-6-4-2/h26-27H,4-25H2,1-3H3;27H,3-26H2,1-2H3",MQIFMNUVBUCDBA-UHFFFAOYSA-N,CCCCCCCCCCCCCNCCCCCCCCCCCCC.CCCCCCCCCCCCCNCC(C)CCCCCCCCCC,-7.40566844630,1.76143937260,2,G2,763.46600,18.25190,251.51340,54,2,2,2,47,328,0,0,0,0,24.06,345.45685438280,0.00000000000,566.92844465458
A-2743,"(E)-N,6,6-trimethyl-N-(naphthalen-1-ylmethyl)hept-2-en-4-yn-1-amine","InChI=1S/C21H25N/c1-21(2,3)15-8-5-9-16-22(4)17-19-13-10-12-18-11-6-7-14-20(18)19/h5-7,9-14H,16-17H2,1-4H3/b9-5+",DOMXUEMWDBAQBQ-WEVVVXLNSA-N,CN(C\C=C\C#CC(C)(C)C)Cc1cccc2ccccc12,-4.46454617790,0.00000000000,1,G1,291.43800,4.87730,96.65300,22,1,0,1,4,114,2,0,0,2,3.24,134.19688693947,1.97771343328,702.49505177091
A-2744,2-methyl-2-[(2-methylundecan-2-yl)disulfanyl]undecane,"InChI=1S/C24H50S2/c1-7-9-11-13-15-17-19-21-23(3,4)25-26-24(5,6)22-20-18-16-14-12-10-8-2/h7-22H2,1-6H3",LEDIWWJKWAMGLD-UHFFFAOYSA-N,CCCCCCCCCC(C)(C)SSC(C)(C)CCCCCCCCC,-7.12796605080,1.03107395335,2,G2,402.79800,10.20640,128.56000,26,2,0,2,19,158,0,0,0,0,0.00,174.77910179603,3.72299369083,266.58576839087