ID,Name,InChI,InChIKey,SMILES,Solubility,SD,Ocurrences,Group,MolWt,MolLogP,MolMR,HeavyAtomCount,NumHAcceptors,NumHDonors,NumHeteroatoms,NumRotatableBonds,NumValenceElectrons,NumAromaticRings,NumSaturatedRings,NumAliphaticRings,RingCount,TPSA,LabuteASA,BalabanJ,BertzCT
A-2378,2-(4-{2-[4-(oxiran-2-ylmethoxy)phenyl]propan-2-yl}phenoxymethyl)oxirane,"InChI=1S/C21H24O4/c1-21(2,15-3-7-17(8-4-15)22-11-19-13-24-19)16-5-9-18(10-6-16)23-12-20-14-25-20/h3-10,19-20H,11-14H2,1-2H3",LCFVJGUPQDGYKZ-UHFFFAOYSA-N,CC(C)(c1ccc(OCC2CO2)cc1)c3ccc(OCC4CO4)cc3,-4.79962003180,0.09274109180,3,G5,340.41900,3.56770,95.48200,25,4,0,4,8,132,2,2,2,4,43.52,148.21549496610,1.41241412753,636.18083778524
A-2379,"N,N-dimethylhexadecan-1-amine","InChI=1S/C18H39N/c1-4-5-6-7-8-9-10-11-12-13-14-15-16-17-18-19(2)3/h4-18H2,1-3H3",NHLUVTZJQOJKCC-UHFFFAOYSA-N,CCCCCCCCCCCCCCCCN(C)C,-4.65243491350,0.92524302922,5,G4,269.51700,6.02930,88.86600,19,1,0,1,15,116,0,0,0,0,3.24,122.70310064278,2.91407335611,153.76927278139
A-2380,3-methyl-7-propan-2-ylbicyclo[2.2.2]oct-3-ene-6-carbaldehyde,"InChI=1S/C13H20O/c1-8(2)12-6-10-5-11(7-14)13(12)4-9(10)3/h7-8,11-13H,4-6H2,1-3H3",BNAYNPKNDLTBTJ-UHFFFAOYSA-N,CC(C)C1CC2=C(C)CC1C(C2)C=O,-3.85085428350,0.00000000000,1,G1,192.30200,3.20390,57.92300,14,1,0,1,2,78,0,1,3,3,17.07,86.57881316139,2.26421189924,274.96015029037
A-2382,"N,N-dimethyldodecan-1-amine","InChI=1S/C14H31N/c1-4-5-6-7-8-9-10-11-12-13-14-15(2)3/h4-14H2,1-3H3",YWFWDNVOPHGWMX-UHFFFAOYSA-N,CCCCCCCCCCCCN(C)C,-4.42612274380,0.40365311411,3,G5,213.40900,4.46890,70.39800,15,1,0,1,11,92,0,0,0,0,3.24,97.24333218519,2.86681313041,109.90632784293
A-2384,"tetrasodium 5-({4-chloro-6-[ethyl(phenyl)amino]-1,3,5-triazin-2-yl}amino)-3-[(E)-2-(1,5-disulfonatonaphthalen-2-yl)diazen-1-yl]-4-hydroxynaphthalene-2,7-disulfonate","InChI=1S/C31H24ClN7O13S4.4Na/c1-2-39(17-7-4-3-5-8-17)31-35-29(32)34-30(36-31)33-22-15-18(53(41,42)43)13-16-14-24(55(47,48)49)26(27(40)25(16)22)38-37-21-12-11-19-20(28(21)56(50,51)52)9-6-10-23(19)54(44,45)46;;;;/h3-15,40H,2H2,1H3,(H,41,42,43)(H,44,45,46)(H,47,48,49)(H,50,51,52)(H,33,34,35,36);;;;/q;4*+1/p-4",DSVQPTKJDZFKIP-UHFFFAOYSA-J,[Na+].[Na+].[Na+].[Na+].CCN(c1ccccc1)c2nc(Cl)nc(Nc3cc(cc4cc(c(N=Nc5ccc6c(cccc6[S]([O-])(=O)=O)c5[S]([O-])(=O)=O)c(O)c34)[S]([O-])(=O)=O)[S]([O-])(=O)=O)n2,-0.50252634990,0.02653922170,2,G3,954.21800,-7.51360,192.83130,60,20,2,29,11,292,6,0,0,6,327.69,435.37695918118,0.00000310083,3103.61749900770
A-2385,1-chloro-4-(3-chlorophenoxy)benzene,InChI=1S/C12H8Cl2O/c13-9-4-6-11(7-5-9)15-12-3-1-2-10(14)8-12/h1-8H,HPRGYUWRGCTBAV-UHFFFAOYSA-N,Clc1ccc(Oc2cccc(Cl)c2)cc1,-5.38735531680,0.33275896373,3,G5,239.10100,4.78570,62.97800,15,1,0,3,2,76,2,0,0,2,9.23,98.20857500883,2.18176927038,451.43422798064
A-2387,"[2,2-bis(2-ethylhexanoyloxymethyl)-3-[2-(2-ethylhexanoyloxymethyl)-3-(7-methyloctanoyloxy)-2-(7-methyloctanoyloxymethyl)propoxy]propyl] 7-methyloctanoate","InChI=1S/C61H112O13/c1-13-19-34-51(16-4)57(65)72-45-60(42-69-54(62)37-28-22-25-31-48(7)8,43-70-55(63)38-29-23-26-32-49(9)10)40-68-41-61(46-73-58(66)52(17-5)35-20-14-2,47-74-59(67)53(18-6)36-21-15-3)44-71-56(64)39-30-24-27-33-50(11)12/h48-53H,13-47H2,1-12H3",ATDCVWYXPQZTCI-UHFFFAOYSA-N,CCCCC(CC)C(=O)OCC(COCC(COC(=O)CCCCCC(C)C)(COC(=O)C(CC)CCCC)COC(=O)C(CC)CCCC)(COC(=O)CCCCCC(C)C)COC(=O)CCCCCC(C)C,-7.32368679600,0.00000000000,1,G1,1053.55400,14.70370,295.12600,74,13,0,13,49,434,0,0,0,0,167.03,451.39972709844,7.37299091880,1408.67455559668
A-2388,"2-hydroxypropanoic acid; 5-({bis[(2-aminopropyl)amino]-1,3,5-triazin-2-yl}amino)-3-{2-[4-({4-[(4-{2-[8-({bis[(2-aminopropyl)amino]-1,3,5-triazin-2-yl}amino)-1-hydroxy-3,6-disulfonaphthalen-2-yl]diazen-1-yl}phenyl)amino]-6-{[3-(diethylamino)propyl]amino}-1,3,5-triazin-2-yl}amino)phenyl]diazen-1-yl}-4-hydroxynaphthalene-2,7-disulfonic acid","InChI=1S/C60H77N27O14S4.C3H6O3/c1-7-87(8-2)19-9-18-65-52-76-57(70-36-10-14-38(15-11-36)83-85-48-44(104(96,97)98)22-34-20-40(102(90,91)92)24-42(46(34)50(48)88)72-59-78-53(66-26-30(3)61)74-54(79-59)67-27-31(4)62)82-58(77-52)71-37-12-16-39(17-13-37)84-86-49-45(105(99,100)101)23-35-21-41(103(93,94)95)25-43(47(35)51(49)89)73-60-80-55(68-28-32(5)63)75-56(81-60)69-29-33(6)64;1-2(4)3(5)6/h10-17,20-25,30-33,88-89H,7-9,18-19,26-29,61-64H2,1-6H3,(H,90,91,92)(H,93,94,95)(H,96,97,98)(H,99,100,101)(H3,65,70,71,76,77,82)(H3,66,67,72,74,78,79)(H3,68,69,73,75,80,81);2,4H,1H3,(H,5,6)",PQKUZJNOANDNSP-UHFFFAOYSA-N,CCN(CC)CCCNc1nc(Nc2ccc(cc2)N=Nc3c(O)c4c(Nc5nc(NCC(C)N)nc(NCC(C)N)n5)cc(cc4cc3[S](O)(=O)=O)[S](O)(=O)=O)nc(Nc6ccc(cc6)N=Nc7c(O)c8c(Nc9nc(NCC(C)N)nc(NCC(C)N)n9)cc(cc8cc7[S](O)(=O)=O)[S](O)(=O)=O)n1.CC(O)C(O)=O,-0.79421904290,0.00000000000,1,G1,1618.79700,6.38320,413.09950,111,39,21,48,36,596,9,0,0,9,696.51,634.96339986682,0.00000247550,5014.19336442903
A-2390,ethyl (2S)-5-carbamimidamido-2-dodecanamidopentanoate hydrochloride,"InChI=1S/C20H40N4O3.ClH/c1-3-5-6-7-8-9-10-11-12-15-18(25)24-17(19(26)27-4-2)14-13-16-23-20(21)22;/h17H,3-16H2,1-2H3,(H,24,25)(H4,21,22,23);1H/t17-;/m0./s1",CUBZMGWLVMQKNE-LMOVPXPDSA-N,Cl.CCCCCCCCCCCC(=O)N[C@@H](CCCNC(N)=N)C(=O)OCC,-0.23161196280,0.00000000000,1,G1,421.02600,3.64027,116.80650,28,4,4,8,17,166,0,0,0,0,117.30,176.38779994700,0.00000000000,422.25497943941
A-2392,"(1E)-1-(2,6,6-trimethylcyclohex-1-en-1-yl)pent-1-en-3-one; (1E)-1-(2,6,6-trimethylcyclohex-2-en-1-yl)pent-1-en-3-one; (3E)-3-methyl-4-(2,6,6-trimethylcyclohex-1-en-1-yl)but-3-en-2-one; (3E)-3-methyl-4-(2,6,6-trimethylcyclohex-2-en-1-yl)but-3-en-2-one","InChI=1S/C14H22O/c1-5-12(15)8-9-13-11(2)7-6-10-14(13,3)4/h7-9,13H,5-6,10H2,1-4H3/b9-8+",VPKMGDRERYMTJX-CMDGGOBGSA-N,CCC(=O)/C=C/C1C(=CCCC1(C)C)C,-3.99234097860,0.00000000000,1,G1,206.32900,3.90420,64.70000,15,1,0,1,3,84,0,0,1,1,17.07,93.25998339713,2.81001261025,294.46056126931
A-2393,"(3E)-3-methyl-4-(2,6,6-trimethylcyclohex-2-en-1-yl)but-3-en-2-one","InChI=1S/C14H22O/c1-10-7-6-8-14(4,5)13(10)9-11(2)12(3)15/h7,9,13H,6,8H2,1-5H3/b11-9-",JRJBVWJSTHECJK-LUAWRHEFSA-N,CC(=O)C(\C)=C/C1C(=CCCC1(C)C)C,-3.99234097860,0.05904965605,2,G3,206.32900,3.90420,64.70000,15,1,0,1,2,84,0,0,1,1,17.07,93.25998339713,3.00040166091,318.23040190298
A-2394,"(1R,2S,5R)-5-methyl-2-(propan-2-yl)cyclohexyl acetate","InChI=1S/C12H22O2/c1-8(2)11-6-5-9(3)7-12(11)14-10(4)13/h8-9,11-12H,5-7H2,1-4H3/t9-,11+,12-/m1/s1",XHXUANMFYXWVNG-ADEWGFFLSA-N,CC(C)[C@@H]1CC[C@@H](C)C[C@H]1OC(C)=O,-3.97511655980,0.00000000000,1,G1,198.30600,3.01030,56.89700,14,2,0,2,2,82,0,1,1,1,26.30,87.02285046221,2.58344098781,198.49841012019
A-2395,3-oxo-N-[4-(3-oxobutanamido)phenyl]butanamide,"InChI=1S/C14H16N2O4/c1-9(17)7-13(19)15-11-3-5-12(6-4-11)16-14(20)8-10(2)18/h3-6H,7-8H2,1-2H3,(H,15,19)(H,16,20)",OWGNKUKYZPVEFS-UHFFFAOYSA-N,CC(=O)CC(=O)Nc1ccc(NC(=O)CC(C)=O)cc1,-3.12750108980,0.10166433880,2,G3,276.29200,1.52180,74.29740,20,4,2,6,6,106,1,0,0,1,92.34,116.09675280206,2.55723407623,485.60981458261
A-2397,[2-(dodecanoyloxy)ethyl]trimethylazanium chloride,"InChI=1S/C17H36NO2.ClH/c1-5-6-7-8-9-10-11-12-13-14-17(19)20-16-15-18(2,3)4;/h5-16H2,1-4H3;1H/q+1;/p-1",BBJUKVPDIPYNBS-UHFFFAOYSA-M,[Cl-].CCCCCCCCCCCC(=O)OCC[N+](C)(C)C,-2.21110030640,0.00000000000,1,G1,321.93300,1.16070,85.70240,21,2,0,4,13,128,0,0,0,0,26.30,137.97629059707,0.00000000000,239.43483206151
A-2401,benzyl benzoate,"InChI=1S/C14H12O2/c15-14(13-9-5-2-6-10-13)16-11-12-7-3-1-4-8-12/h1-10H,11H2",SESFRYSPDFLNCH-UHFFFAOYSA-N,O=C(OCc1ccccc1)c2ccccc2,-4.17762449390,0.00000000000,1,G1,212.24800,3.04360,62.00350,16,2,0,2,3,80,2,0,0,2,26.30,94.49344888390,1.94603328068,448.67626205276
A-2402,"1,1'-sulfonyldibenzene","InChI=1S/C12H10O2S/c13-15(14,11-7-3-1-4-8-11)12-9-5-2-6-10-12/h1-10H",KZTYYGOKRVBIMI-UHFFFAOYSA-N,O=[S](=O)(c1ccccc1)c2ccccc2,-4.19287994050,0.00000000000,1,G1,218.27700,2.51940,58.33580,15,2,0,3,2,76,2,0,0,2,34.14,89.11389570735,2.55050140563,484.84950698390
A-2403,1-(morpholin-4-yl)prop-2-en-1-one,"InChI=1S/C7H11NO2/c1-2-7(9)8-3-5-10-6-4-8/h2H,1,3-6H2",XLPJNCYCZORXHG-UHFFFAOYSA-N,C=CC(=O)N1CCOCC1,0.85025758530,0.00000000000,1,G1,141.17000,0.03120,37.59600,10,2,0,3,1,56,0,1,1,1,29.54,60.26837052825,2.38053991279,138.54153309698
A-2404,1-methoxypropan-2-ol,"InChI=1S/C4H10O2/c1-4(5)3-6-2/h4-5H,3H2,1-2H3",ARXJGSRGQADJSQ-UHFFFAOYSA-N,COCC(C)O,1.04516917890,0.00000000000,1,G1,90.12200,0.01360,23.55680,6,2,1,2,2,38,0,0,0,0,29.46,37.74185635272,2.62721484790,26.72905595320
A-2407,disodium 2-(6-oxido-3-oxo-3H-xanthen-9-yl)benzoate,"InChI=1S/C20H12O5.2Na/c21-11-5-7-15-17(9-11)25-18-10-12(22)6-8-16(18)19(15)13-3-1-2-4-14(13)20(23)24;;/h1-10,21H,(H,23,24);;/q;2*+1/p-2",NJDNXYGOVLYJHP-UHFFFAOYSA-L,[Na+].[Na+].[O-]C(=O)c1ccccc1C2=C3C=CC(=O)C=C3Oc4cc([O-])ccc24,-1.57550536440,1.34409082134,4,G4,376.27500,-3.99010,88.31850,27,5,0,7,2,122,2,0,2,4,93.40,198.11435083180,0.00000130667,1166.55044829790
A-2409,azanium; molybdenum; oxygen(-2) anion; hydrate,InChI=1S/Mo.H3N.H2O.O/h;1H3;1H2;/q;;;-2/p+1,XCOMAVCHADVANQ-UHFFFAOYSA-O,[NH4+].O.[O--].[Mo],-1.17024117400,0.00000000000,1,G1,147.99300,-0.56980,10.28510,4,0,1,4,0,30,0,0,0,0,96.50,38.85382307246,0.00000000000,6.00000000000
A-2411,2-sulfanylacetic acid,"InChI=1S/C2H4O2S/c3-2(4)1-5/h5H,1H2,(H,3,4)",CWERGRDVMFNCDR-UHFFFAOYSA-N,OC(=O)CS,-1.96434921480,1.50002460740,2,G2,92.11900,0.00080,21.48880,5,2,2,3,1,30,0,0,0,0,37.30,35.21501565787,2.84737892309,42.91260938324
A-2412,"7-hydroxy-3,7-dimethyloctanal; 1H-indole","InChI=1S/C10H20O2.C8H7N/c1-9(6-8-11)5-4-7-10(2,3)12;1-2-4-8-7(3-1)5-6-9-8/h8-9,12H,4-7H2,1-3H3;1-6,9H",NSBPKSMZAAJTFE-UHFFFAOYSA-N,CC(CCCC(C)(C)O)CC=O.[nH]1ccc2ccccc12,-4.92245093980,0.00000000000,1,G1,289.41900,4.32060,88.29250,21,2,2,3,6,116,2,0,0,2,53.09,126.93323622198,0.00000021583,494.99788990146
A-2413,dioctadecyl (E)-but-2-enedioate,"InChI=1S/C40H76O4/c1-3-5-7-9-11-13-15-17-19-21-23-25-27-29-31-33-37-43-39(41)35-36-40(42)44-38-34-32-30-28-26-24-22-20-18-16-14-12-10-8-6-4-2/h35-36H,3-34,37-38H2,1-2H3/b36-35+",XHSDDKAGJYJAQM-ULDVOPSXSA-N,CCCCCCCCCCCCCCCCCCOC(=O)\C=C\C(=O)OCCCCCCCCCCCCCCCCCC,-7.09415236600,0.00000000000,1,G1,621.04400,13.15200,190.15000,44,4,0,4,36,260,0,0,0,0,52.60,274.83252511621,3.32467609332,562.49743560825
A-2414,indium(3+) ion trinitrate,InChI=1S/In.3NO3.H2O/c;3*2-1(3)4;/h;;;;1H2/q+3;3*-1;,YZZFBYAKINKKFM-UHFFFAOYSA-N,O.[In+3].[O-][N+]([O-])=O.[O-][N+]([O-])=O.[O-][N](=O)=O,-2.50357961090,0.00000000000,1,G1,318.84500,-1.92280,40.45200,14,9,0,14,0,80,0,0,0,0,230.10,92.97857335904,-0.00000002700,112.91677549671
A-2415,sodium methanethiolate,"InChI=1S/CH4S.Na/c1-2;/h2H,1H3;/q;+1/p-1",RMBAVIFYHOYIFM-UHFFFAOYSA-M,[Na+].C[S-],-1.84566845230,0.00000000000,1,G1,70.09200,-2.83290,13.28900,3,1,0,2,0,14,0,0,0,0,0.00,48.30771731394,0.00000000000,4.75488750216
A-2417,ethyl 2-[di(phenyl)methylideneamino]acetate,"InChI=1S/C17H17NO2/c1-2-20-16(19)13-18-17(14-9-5-3-6-10-14)15-11-7-4-8-12-15/h3-12H,2,13H2,1H3",QUGJYNGNUBHTNS-UHFFFAOYSA-N,CCOC(=O)CN=C(c1ccccc1)c2ccccc2,-3.42704444920,0.00000000000,1,G1,267.32800,3.08710,80.02300,20,3,0,3,5,102,2,0,0,2,38.66,118.48359771295,2.30363556216,534.95370370066
A-2418,"3,9-bis(2,6-di-tert-butyl-4-methylphenoxy)-2,4,8,10-tetraoxa-3,9-diphosphaspiro[5.5]undecane","InChI=1S/C35H54O6P2/c1-23-15-25(31(3,4)5)29(26(16-23)32(6,7)8)40-42-36-19-35(20-37-42)21-38-43(39-22-35)41-30-27(33(9,10)11)17-24(2)18-28(30)34(12,13)14/h15-18H,19-22H2,1-14H3",SSADPHQCUURWSW-UHFFFAOYSA-N,Cc1cc(c(OP2OCC3(CO2)COP(OC3)Oc4c(cc(C)cc4C(C)(C)C)C(C)(C)C)c(c1)C(C)(C)C)C(C)(C)C,-7.80123833100,0.70748667395,2,G2,632.75900,10.48504,178.49500,43,6,0,8,4,240,2,2,2,4,55.38,263.07116733718,1.46252310154,1118.54961371225
A-2419,aluminium(3+) ion phosphate,"InChI=1S/Al.H3O4P/c;1-5(2,3)4/h;(H3,1,2,3,4)/q+3;/p-3",ILRRQNADMUWWFW-UHFFFAOYSA-K,[Al+3].[O-][P]([O-])([O-])=O,-4.24608283260,0.00000000000,1,G1,121.95200,-3.20540,13.36050,6,4,0,6,0,32,0,0,0,0,86.25,45.18013383648,0.00000000000,53.68367439558
A-2420,"1,4-diethyl 2-{[4-({4-[(1,4-diethoxy-1,4-dioxobutan-2-yl)amino]-3-methylcyclohexyl}methyl)-2-methylcyclohexyl]amino}butanedioate","InChI=1S/C31H54N2O8/c1-7-38-28(34)18-26(30(36)40-9-3)32-24-13-11-22(15-20(24)5)17-23-12-14-25(21(6)16-23)33-27(31(37)41-10-4)19-29(35)39-8-2/h20-27,32-33H,7-19H2,1-6H3",YHVVJCQIMRGPPE-UHFFFAOYSA-N,CCOC(=O)CC(NC1CCC(CC2CCC(NC(CC(=O)OCC)C(=O)OCC)C(C)C2)CC1C)C(=O)OCC,-5.06653388960,0.00000000000,1,G1,582.77900,3.93510,154.81640,41,10,2,10,16,236,0,2,2,2,129.26,245.87584583809,1.87187633243,770.93549808869
A-2421,"N-(carboxymethyl)-3-(dodecanoylamino)-N,N-dimethylpropan-1-aminium hydroxide","InChI=1S/C19H38N2O3/c1-4-5-6-7-8-9-10-11-12-14-18(22)20-15-13-16-21(2,3)17-19(23)24/h4-17H2,1-3H3,(H-,20,22,23,24)",MRUAUOIMASANKQ-UHFFFAOYSA-N,CCCCCCCCCCCC(=O)NCCC[N+](C)(C)CC([O-])=O,-3.13675099840,0.00000000000,1,G1,342.52400,2.23990,96.32010,24,3,1,5,16,142,0,0,0,0,69.23,147.94515437966,3.42741070662,343.50360163737
A-2423,2-[2-(dimethylamino)ethoxy]ethan-1-ol,"InChI=1S/C6H15NO2/c1-7(2)3-5-9-6-4-8/h8H,3-6H2,1-2H3",YSAANLSYLSUVHB-UHFFFAOYSA-N,CN(C)CCOCCO,-0.12447487960,0.00000000000,1,G1,133.19100,-0.44310,36.45880,9,3,1,3,5,56,0,0,0,0,32.70,56.23157425172,2.74669090686,57.01955000865
A-2424,"4-nitrobenzene-1,3-diamine","InChI=1S/C6H7N3O2/c7-4-1-2-6(9(10)11)5(8)3-4/h1-3H,7-8H2",DPIZKMGPXNXSGL-UHFFFAOYSA-N,Nc1ccc(c(N)c1)[N+]([O-])=O,-2.18509147870,0.69766319655,2,G2,153.14100,0.75920,41.92120,11,4,2,5,1,58,1,0,0,1,95.18,62.76416023602,3.19606966213,297.87891172430
A-2425,dibutyltin dilaurate,"InChI=1S/2C12H24O2.2C4H9.Sn/c2*1-2-3-4-5-6-7-8-9-10-11-12(13)14;2*1-3-4-2;/h2*2-11H2,1H3,(H,13,14);2*1,3-4H2,2H3;/q;;;;+2/p-2",UKLDJPRMSDWDSL-UHFFFAOYSA-L,CCCCCCCCCCCC([O-])=O.CCCCCCCCCCCC([O-])=O.CCCC[Sn++]CCCC,-5.64508614270,0.00000000000,1,G1,631.57100,8.44180,158.88600,37,4,0,5,26,220,0,0,0,0,80.26,242.32063266014,-0.00000048149,391.01114759953
A-2428,tetraethylplumbane,"InChI=1S/4C2H5.Pb/c4*1-2;/h4*1H2,2H3;",MRMOZBOQVYRSEM-UHFFFAOYSA-N,CC[Pb](CC)(CC)CC,-5.41289445710,0.38056229540,3,G5,323.44800,3.51480,47.67800,9,0,0,1,4,56,0,0,0,0,0.00,64.69309592260,3.82468420321,47.45811190640
A-2430,trans-1-(1-oxohexadecyl)-4-[(1-oxohexadecyl)oxy]-L-proline,"InChI=1S/C37H69NO5/c1-3-5-7-9-11-13-15-17-19-21-23-25-27-29-35(39)38-32-33(31-34(38)37(41)42)43-36(40)30-28-26-24-22-20-18-16-14-12-10-8-6-4-2/h33-34H,3-32H2,1-2H3,(H,41,42)/t33-,34+/m1/s1",QZLXCFQVOCEKSX-NOCHOARKSA-N,CCCCCCCCCCCCCCCC(=O)O[C@@H]1C[C@H](N(C1)C(=O)CCCCCCCCCCCCCCC)C(O)=O,-5.78387572070,0.00000000000,1,G1,607.96100,10.54630,178.25780,43,4,1,6,30,252,0,1,1,1,83.91,265.02351494462,2.07589948359,696.49576488428
A-2433,cerium(3+) ion trifluoride,InChI=1S/Ce.3FH/h;3*1H/q+3;;;/p-3,QCCDYNYSHILRDG-UHFFFAOYSA-K,[F-].[F-].[F-].[Ce+3],-5.86334489380,0.42252027393,4,G5,197.11000,-8.98800,0.00000,4,0,0,4,0,25,0,0,0,0,0.00,55.43722415147,0.00000000000,3.24511249784
A-2434,triphenylphosphane,InChI=1S/C18H15P/c1-4-10-16(11-5-1)19(17-12-6-2-7-13-17)18-14-8-3-9-15-18/h1-15H,RIOQSEWOXXDEQQ-UHFFFAOYSA-N,c1ccc(cc1)P(c2ccccc2)c3ccccc3,-6.20130110040,0.13162071740,2,G3,262.29200,3.44480,85.14800,19,0,0,1,3,92,3,0,0,3,0.00,115.04527691250,2.12101063257,523.71389761141
A-2436,"3,7-dimethylocta-1,6-diene","InChI=1S/C10H18/c1-5-10(4)8-6-7-9(2)3/h5,7,10H,1,6,8H2,2-4H3",FUDNBFMOXDUIIE-UHFFFAOYSA-N,CC(CCC=C(C)C)C=C,-5.96458644620,0.00000000000,1,G1,138.25400,3.55490,48.02600,10,0,0,0,4,58,0,0,0,0,0.00,64.64452399303,3.36292386490,116.00000000000
A-2437,"2,2-bis(hydroxymethyl)propane-1,3-diol; decanoic acid; heptanoic acid; octanoic acid; pentanoic acid","InChI=1S/C10H20O2.C8H16O2.C7H14O2.C5H12O4.C5H10O2/c1-2-3-4-5-6-7-8-9-10(11)12;1-2-3-4-5-6-7-8(9)10;1-2-3-4-5-6-7(8)9;6-1-5(2-7,3-8)4-9;1-2-3-4-5(6)7/h2-9H2,1H3,(H,11,12);2-7H2,1H3,(H,9,10);2-6H2,1H3,(H,8,9);6-9H,1-4H2;2-4H2,1H3,(H,6,7)",ZIRMEZKEFPNOEV-UHFFFAOYSA-N,CCCCCCCCCC(O)=O.CCCCCCCC(O)=O.CCCCCCC(O)=O.CCCCC(O)=O.OCC(CO)(CO)CO,-7.53462824030,0.00000000000,1,G1,684.94900,6.88780,185.58940,47,8,8,12,26,284,0,0,0,0,230.12,284.17056594917,-0.00000015800,649.43519669325
A-2438,2-ethylhexyl 2-({2-[(2-ethylhexyl)oxy]-2-oxoethyl}sulfanyl)acetate,"InChI=1S/C20H38O4S/c1-5-9-11-17(7-3)13-23-19(21)15-25-16-20(22)24-14-18(8-4)12-10-6-2/h17-18H,5-16H2,1-4H3",KYWZILPIDASSGE-UHFFFAOYSA-N,CCCCC(CC)COC(=O)CSCC(=O)OCC(CC)CCCC,-6.65499817060,0.00000000000,1,G1,374.58700,5.23880,105.85500,25,5,0,5,16,148,0,0,0,0,52.60,158.34639588583,3.79020524392,314.58785472428
A-2442,"2-(4-methylpent-3-enyl)anthracene-9,10-dione","InChI=1S/C20H18O2/c1-13(2)6-5-7-14-10-11-17-18(12-14)20(22)16-9-4-3-8-15(16)19(17)21/h3-4,6,8-12H,5,7H2,1-2H3",NQVBCGTZRWHVSY-UHFFFAOYSA-N,CC(C)=CCCc1ccc2C(=O)c3ccccc3C(=O)c2c1,-7.98581852440,0.00000000000,1,G1,290.36200,4.36080,87.50100,22,2,0,2,3,110,2,0,1,3,34.14,130.03564425511,1.97215081394,793.10458527486
A-2443,"O1-nonyl O2-octyl benzene-1,2-dicarboxylate","InChI=1S/C25H40O4/c1-3-5-7-9-11-13-17-21-29-25(27)23-19-15-14-18-22(23)24(26)28-20-16-12-10-8-6-4-2/h14-15,18-19H,3-13,16-17,20-21H2,1-2H3",ZKHMKHBSASMXEZ-UHFFFAOYSA-N,CCCCCCCCCOC(=O)c1ccccc1C(=O)OCCCCCCCC,-4.78094141510,0.00000000000,1,G1,404.59100,7.11130,118.37600,29,4,0,4,17,164,1,0,0,1,52.60,176.91543795213,2.31667288632,567.69671155821
A-2444,lithium docosanoate,"InChI=1S/C22H44O2.Li/c1-2-3-4-5-6-7-8-9-10-11-12-13-14-15-16-17-18-19-20-21-22(23)24;/h2-21H2,1H3,(H,23,24);/q;+1/p-1",SDIIFPDBZMCCLQ-UHFFFAOYSA-M,[Li+].CCCCCCCCCCCCCCCCCCCCCC([O-])=O,-6.87697674050,0.00000000000,1,G1,346.52500,3.56220,103.02100,25,2,0,3,20,144,0,0,0,0,40.13,169.65635680833,0.00000000000,256.41177447768
A-2445,lithium myristate,"InChI=1S/C14H28O2.Li/c1-2-3-4-5-6-7-8-9-10-11-12-13-14(15)16;/h2-13H2,1H3,(H,15,16);/q;+1/p-1",KJSPVJJOPONRTK-UHFFFAOYSA-M,[Li+].CCCCCCCCCCCCCC([O-])=O,-6.70703113880,0.00000000000,1,G1,234.30900,0.44140,66.08500,17,2,0,3,12,96,0,0,0,0,40.13,118.73681989316,0.00000000000,160.30119944437
A-2446,lithium octadec-9-enoate,"InChI=1S/C18H34O2.Li/c1-2-3-4-5-6-7-8-9-10-11-12-13-14-15-16-17-18(19)20;/h9-10H,2-8,11-17H2,1H3,(H,19,20);/q;+1/p-1/b10-9-;",AVOVSJYQRZMDQJ-KVVVOXFISA-M,[Li+].CCCCCCCC\C=C/CCCCCCCC([O-])=O,-6.79723893020,0.00000000000,1,G1,288.40100,1.77780,84.45900,21,2,0,3,15,118,0,0,0,0,40.13,143.50698531856,0.00000000000,239.37282534113
A-2447,lithium(1+) ion 12-hydroxyoctadecanoate,"InChI=1S/C18H36O3.Li/c1-2-3-4-11-14-17(19)15-12-9-7-5-6-8-10-13-16-18(20)21;/h17,19H,2-16H2,1H3,(H,20,21);/q;+1/p-1",FPLIHVCWSXLMPX-UHFFFAOYSA-M,[Li+].CCCCCCC(O)CCCCCCCCCCC([O-])=O,-6.82355360720,0.00000000000,1,G1,306.41600,0.97260,85.94280,22,3,1,4,16,126,0,0,0,0,60.36,148.99082210294,0.00000000000,234.37215811651
A-2448,methanidylidyneoxidanium triphenylphosphane (2Z)-4-oxopent-2-en-2-olate rhodium,"InChI=1S/C18H15P.C5H7O2.CO.Rh/c1-4-10-16(11-5-1)19(17-12-6-2-7-13-17)18-14-8-3-9-15-18;1-4(6)3-5(2)7;1-2;/h1-15H;3H,1-2H3;;/q;-1;;",ZETXURAVPSJSPU-UHFFFAOYSA-N,[Rh].CC(=O)[CH-]C(C)=O.[C-]#[O+].c1ccc(cc1)P(c2ccccc2)c3ccccc3,-7.31203359080,0.00000000000,1,G1,492.31700,3.77348,114.73950,29,2,0,5,5,151,3,0,0,3,54.04,186.33341146416,0.00000067473,759.73818507690
A-2450,3-[3-(9-methyldecoxy)propylamino]propanenitrile,"InChI=1S/C17H34N2O/c1-17(2)11-7-5-3-4-6-8-15-20-16-10-14-19-13-9-12-18/h17,19H,3-11,13-16H2,1-2H3",JWIXWVDMADJVJP-UHFFFAOYSA-N,CC(C)CCCCCCCCOCCCNCCC#N,-3.61846649220,0.00000000000,1,G1,282.47200,4.28308,85.69270,20,3,1,3,15,118,0,0,0,0,45.05,125.63431195276,2.94349438964,223.52011862678
A-2451,[(1S)-3-(4-methylpent-3-enyl)-1-cyclohex-3-enyl]methyl acetate,"InChI=1S/C15H24O2/c1-12(2)6-4-7-14-8-5-9-15(10-14)11-17-13(3)16/h6,8,15H,4-5,7,9-11H2,1-3H3/t15-/m0/s1",IIUKCYITROTKFB-HNNXBMFYSA-N,CC(=O)OC[C@H]1CCC=C(CCC=C(C)C)C1,-4.97562478540,0.00000000000,1,G1,236.35500,4.02240,70.72200,17,2,0,2,5,96,0,0,1,1,26.30,104.73847074103,2.29943380732,308.88350936713