ID,Name,InChI,InChIKey,SMILES,Solubility,SD,Ocurrences,Group,MolWt,MolLogP,MolMR,HeavyAtomCount,NumHAcceptors,NumHDonors,NumHeteroatoms,NumRotatableBonds,NumValenceElectrons,NumAromaticRings,NumSaturatedRings,NumAliphaticRings,RingCount,TPSA,LabuteASA,BalabanJ,BertzCT
A-2745,bis(2-ethylhexyl) carbonate,"InChI=1S/C17H34O3/c1-5-9-11-15(7-3)13-19-17(18)20-14-16(8-4)12-10-6-2/h15-16H,5-14H2,1-4H3",PXTQQOLKZBLYDY-UHFFFAOYSA-N,CCCCC(CC)COC(=O)OCC(CC)CCCC,-6.97993666850,0.00000000000,1,G1,286.45600,5.57240,83.91200,20,3,0,3,12,120,0,0,0,0,35.53,124.96693741723,3.79502866750,206.27500612894
A-2747,dibenzyl {[bis(benzyloxy)phosphoryl]oxy}phosphonate,"InChI=1S/C28H28O7P2/c29-36(31-21-25-13-5-1-6-14-25,32-22-26-15-7-2-8-16-26)35-37(30,33-23-27-17-9-3-10-18-27)34-24-28-19-11-4-12-20-28/h1-20H,21-24H2",NSBNXCZCLRBQTA-UHFFFAOYSA-N,O=[P](OCc1ccccc1)(OCc2ccccc2)O[P](=O)(OCc3ccccc3)OCc4ccccc4,-7.25404267720,0.00000000000,1,G1,538.47300,8.08640,141.22200,37,7,0,9,14,192,4,0,0,4,80.29,216.72940169176,1.54132628867,1105.72365103657
A-2748,4-(4-{2-[4-(4-aminophenoxy)phenyl]propan-2-yl}phenoxy)aniline,"InChI=1S/C27H26N2O2/c1-27(2,19-3-11-23(12-4-19)30-25-15-7-21(28)8-16-25)20-5-13-24(14-6-20)31-26-17-9-22(29)10-18-26/h3-18H,28-29H2,1-2H3",KMKWGXGSGPYISJ-UHFFFAOYSA-N,CC(C)(c1ccc(Oc2ccc(N)cc2)cc1)c3ccc(Oc4ccc(N)cc4)cc3,-7.19172721960,0.00000000000,1,G1,410.51700,6.76150,126.86880,31,4,2,4,6,156,4,0,0,4,70.50,182.60438393392,1.46447603905,1038.99097604477
A-2750,(benzoyloxy)(hydroxy)alumanyl octadecanoate,"InChI=1S/C18H36O2.C7H6O2.Al.H2O/c1-2-3-4-5-6-7-8-9-10-11-12-13-14-15-16-17-18(19)20;8-7(9)6-4-2-1-3-5-6;;/h2-17H2,1H3,(H,19,20);1-5H,(H,8,9);;1H2/q;;+3;/p-3",PMWKMVGWLYXGLN-UHFFFAOYSA-K,CCCCCCCCCCCCCCCCCC(=O)O[Al](O)OC(=O)c1ccccc1,-7.25389989790,0.00000000000,1,G1,448.58000,6.62530,125.46830,31,5,1,6,19,174,1,0,0,1,72.83,193.47129822773,1.88275830702,578.53489985611
A-2751,"3-(Diethylamino)-7-oxo-7H-(1)benzopyrano(3',2':3,4)pyrido(1,2-a)benzimidazole-6-carbonitrile","InChI=1S/C23H18N4O2/c1-3-26(4-2)15-10-9-14-11-16-21(29-20(14)12-15)17(13-24)23(28)27-19-8-6-5-7-18(19)25-22(16)27/h5-12H,3-4H2,1-2H3",UTTFXJZCRVZYQF-UHFFFAOYSA-N,CCN(CC)c1ccc2C=C3C(=C(C#N)C(=O)n4c5ccccc5nc34)Oc2c1,-7.20233276240,0.00000000000,1,G1,382.42300,4.46498,114.52200,29,6,0,6,3,142,5,0,0,5,74.54,165.75766793857,1.93437095053,1517.61220446824
A-2752,"N-{2-[(E)-2-(2,6-dicyano-4-methylphenyl)diazen-1-yl]-5-(diethylamino)phenyl}methanesulfonamide","InChI=1S/C20H22N6O2S/c1-5-26(6-2)17-7-8-18(19(11-17)25-29(4,27)28)23-24-20-15(12-21)9-14(3)10-16(20)13-22/h7-11,25H,5-6H2,1-4H3",NSLHLMXJNOITEZ-UHFFFAOYSA-N,CCN(CC)c1ccc(N=Nc2c(cc(C)cc2C#N)C#N)c(N[S](C)(=O)=O)c1,-7.23310509360,0.00000000000,1,G1,410.50300,4.37148,113.25450,29,7,1,9,7,150,2,0,0,2,121.71,170.71044319439,2.58122418820,1087.63114870269
A-2753,"methyl (9E,12E,15E)-octadeca-9,12,15-trienoate methyl (9Z)-octadec-9-enoate methyl (9Z,12Z)-octadeca-9,12-dienoate methyl hexadecanoate methyl octadecanoate","InChI=1S/C19H38O2.C19H36O2.C19H34O2.C19H32O2.C17H34O2/c4*1-3-4-5-6-7-8-9-10-11-12-13-14-15-16-17-18-19(20)21-2;1-3-4-5-6-7-8-9-10-11-12-13-14-15-16-17(18)19-2/h3-18H2,1-2H3;10-11H,3-9,12-18H2,1-2H3;7-8,10-11H,3-6,9,12-18H2,1-2H3;4-5,7-8,10-11H,3,6,9,12-18H2,1-2H3;3-16H2,1-2H3/b;11-10-;8-7-,11-10-;5-4+,8-7+,11-10+;",SWOKSHSHKMKETQ-WIBNQTOSSA-N,CCCCCCCCCCCCCCCCCC(=O)OC.CCCCCCCCCCCCCCCC(=O)OC.CCCCCCCC\C=C/CCCCCCCC(=O)OC.CCCCC/C=C\C\C=C/CCCCCCCC(=O)OC.CC/C=C/C/C=C/C/C=C/CCCCCCCC(=O)OC,-7.80035989930,0.00000000000,1,G1,1452.40500,29.98030,448.01200,103,10,0,10,72,606,0,0,0,0,131.50,640.57496862108,-0.00000038870,1846.10533032076
A-2754,2-[[4-[(2-cyano-3-nitrophenyl)azo]-m-tolyl](2-acetoxyethyl)amino]ethyl acetate,"InChI=1S/C21H21N5O6/c1-15(27)31-11-9-25(10-12-32-16(2)28)19-5-3-18(4-6-19)23-24-21-8-7-20(26(29)30)13-17(21)14-22/h3-8,13H,9-12H2,1-2H3",GRMDKKJYMUDEJO-UHFFFAOYSA-N,CC(=O)OCCN(CCOC(C)=O)c1ccc(cc1)N=Nc2ccc(cc2C#N)[N+]([O-])=O,-7.30046504550,0.00000000000,1,G1,439.42800,3.81448,113.90840,32,10,0,11,10,166,2,0,0,2,147.49,183.57527793289,2.12529279778,1025.63602456723
A-2755,"1-bromo-1,1,2,2,3,3,4,4,5,5,6,6,7,7,8,8,8-heptadecafluorooctane","InChI=1S/C8BrF17/c9-7(22,23)5(18,19)3(14,15)1(10,11)2(12,13)4(16,17)6(20,21)8(24,25)26",WTWWXOGTJWMJHI-UHFFFAOYSA-N,FC(F)(F)C(F)(F)C(F)(F)C(F)(F)C(F)(F)C(F)(F)C(F)(F)C(F)(F)Br,-7.39703399460,0.00000000000,1,G1,498.95800,6.34820,49.61100,26,0,0,18,6,158,0,0,0,0,0.00,137.97549528399,6.61291390640,473.86141443099
A-2756,3-[ethyl[4-[(4-nitrophenyl)azo]phenyl]amino]propiononitrile,"InChI=1S/C17H17N5O2/c1-2-21(13-3-12-18)16-8-4-14(5-9-16)19-20-15-6-10-17(11-7-15)22(23)24/h4-11H,2-3,13H2,1H3",ZSPPPAFDNHYXNW-UHFFFAOYSA-N,CCN(CCC#N)c1ccc(cc1)N=Nc2ccc(cc2)[N+]([O-])=O,-7.20865092820,0.00000000000,1,G1,323.35600,4.75018,91.83140,24,6,0,7,7,122,2,0,0,2,94.89,139.56537481621,2.04817316233,748.04552385810
A-2757,Pigment red 149,"InChI=1S/C40H26N2O4/c1-19-13-20(2)16-23(15-19)41-37(43)29-9-5-25-27-7-11-31-36-32(40(46)42(39(31)45)24-17-21(3)14-22(4)18-24)12-8-28(34(27)36)26-6-10-30(38(41)44)35(29)33(25)26/h5-18H,1-4H3",FDXVHZCFTCIKDD-UHFFFAOYSA-N,Cc1cc(C)cc(c1)N2C(=O)c3ccc4c5ccc6C(=O)N(c7cc(C)cc(C)c7)C(=O)c8ccc(c9ccc(C2=O)c3c49)c5c68,-7.47614879480,0.57745098000,2,G2,598.65800,7.17508,187.71800,46,6,0,6,2,220,9,0,0,9,78.14,260.55872427515,1.43134709211,2650.65502993210
A-2759,ammonium iron(3+) hexakis(cyano-C)ferrate(4-),InChI=1S/6CN.2Fe.H3N/c6*1-2;;;/h;;;;;;;;1H3/q6*-1;+2;+3;/p+1,ILZWGESBVHGTRX-UHFFFAOYSA-O,[NH4+].[Fe++].[Fe+3].[C-]#N.[C-]#N.[C-]#N.[C-]#N.[C-]#N.[C-]#N,-7.15508844940,0.00000000000,1,G1,285.83700,0.94942,35.79280,15,6,1,9,0,79,0,0,0,0,179.24,111.27558636466,-0.00000000396,96.50074950136
A-2760,"Methyl 3-[n-ethyl-4-[(5-nitro-2,1-benzothiazol-3-yl)azo]anilino]propanoate","InChI=1S/C19H19N5O4S/c1-3-23(11-10-18(25)28-2)14-6-4-13(5-7-14)20-21-19-16-12-15(24(26)27)8-9-17(16)22-29-19/h4-9,12H,3,10-11H2,1-2H3",VHLFTCNAACYPDY-UHFFFAOYSA-N,CCN(CCC(=O)OC)c1ccc(cc1)N=Nc2snc3ccc(cc23)[N+]([O-])=O,-7.31540245420,0.00000000000,1,G1,413.45900,5.00930,111.41240,29,9,0,10,8,150,3,0,0,3,110.29,170.49557035072,1.74406886961,1048.43904480580
A-2761,tetradecyl tetradecanoate,"InChI=1S/C28H56O2/c1-3-5-7-9-11-13-15-17-19-21-23-25-27-30-28(29)26-24-22-20-18-16-14-12-10-8-6-4-2/h3-27H2,1-2H3",DZKXJUASMGQEMA-UHFFFAOYSA-N,CCCCCCCCCCCCCCOC(=O)CCCCCCCCCCCCC,-7.32710748170,0.00000000000,1,G1,424.75400,9.93180,133.11500,30,2,0,2,25,180,0,0,0,0,26.30,189.86775544609,3.13428435717,326.60078005064
A-2762,"trans-4-ethyl-4'-(4-propylcyclohexyl)-1,1'-biphenyl","InChI=1S/C23H30/c1-3-5-19-8-12-21(13-9-19)23-16-14-22(15-17-23)20-10-6-18(4-2)7-11-20/h6-7,10-11,14-17,19,21H,3-5,8-9,12-13H2,1-2H3",DOALOUQODWWGEZ-UHFFFAOYSA-N,CCCC1CCC(CC1)c2ccc(cc2)c3ccc(CC)cc3,-7.18539056440,0.00000000000,1,G1,306.49300,6.98990,100.86300,23,0,0,0,5,122,2,1,1,3,0.00,141.49702943039,1.64846752348,582.94036645207
A-2763,trixylyl phosphate,"InChI=1S/C24H27O4P/c1-16-7-17(2)11-22(10-16)26-29(25,27-23-12-18(3)8-19(4)13-23)28-24-14-20(5)9-21(6)15-24/h7-15H,1-6H3",LLPMAOBOEQFPRE-UHFFFAOYSA-N,Cc1cc(C)cc(O[P](=O)(Oc2cc(C)cc(C)c2)Oc3cc(C)cc(C)c3)c1,-7.31223026430,0.00000000000,1,G1,410.45000,7.18202,117.23850,29,4,0,5,6,152,3,0,0,3,44.76,172.62549058100,1.99562922797,890.78090917002
A-2764,"beta,beta-carotene","InChI=1S/C40H56/c1-31(19-13-21-33(3)25-27-37-35(5)23-15-29-39(37,7)8)17-11-12-18-32(2)20-14-22-34(4)26-28-38-36(6)24-16-30-40(38,9)10/h11-14,17-22,25-28H,15-16,23-24,29-30H2,1-10H3/b12-11+,19-13+,20-14+,27-25+,28-26+,31-17+,32-18+,33-21+,34-22+",OENHQHLEOONYIE-JLTXGRSLSA-N,CC1=C(\C=C\C(C)=C\C=C\C(C)=C\C=C\C=C(C)\C=C\C=C(C)\C=C\C2=C(C)CCCC2(C)C)C(C)(C)CCC1,-7.55379243810,0.00000000000,1,G1,536.88800,12.60580,181.39200,40,0,0,0,10,216,0,0,2,2,0.00,247.37469782821,1.88563797905,1116.38309138430
A-2765,hafnium,InChI=1S/Hf,VBJZVLUMGGDVMO-UHFFFAOYSA-N,[Hf],-7.17243264350,0.00000000000,1,G1,178.49000,-0.00250,0.00000,1,0,0,1,0,4,0,0,0,0,0.00,26.27658254752,0.00000000000,0.00000000000
A-2766,hafnium dioxide,InChI=1S/Hf.2O/q+4;2*-2,WIHZLLGSGQNAGK-UHFFFAOYSA-N,[O--].[O--].[Hf+4],-7.24404609550,0.00000000000,1,G1,210.48800,-0.24010,1.37300,3,0,0,3,0,16,0,0,0,0,57.00,37.23808940435,0.00000000000,2.75488750216
A-2767,(13Z)-N-octadecyldocos-13-enamide,"InChI=1S/C40H79NO/c1-3-5-7-9-11-13-15-17-19-21-22-23-24-26-28-30-32-34-36-38-40(42)41-39-37-35-33-31-29-27-25-20-18-16-14-12-10-8-6-4-2/h17,19H,3-16,18,20-39H2,1-2H3,(H,41,42)/b19-17-",FUSNPOOETKRESL-ZPHPHTNESA-N,CCCCCCCCCCCCCCCCCCNC(=O)CCCCCCCCCCC\C=C/CCCCCCCC,-7.77090942300,0.34948500215,2,G3,590.07800,13.96200,190.47570,42,1,1,2,36,250,0,0,0,0,29.10,265.99377474076,3.17515094521,527.73156001891
A-2768,"(2R)-5-amino-2-(dibenzylamino)-1,6-diphenylhex-4-en-3-one","InChI=1S/C32H32N2O/c33-30(21-26-13-5-1-6-14-26)23-32(35)31(22-27-15-7-2-8-16-27)34(24-28-17-9-3-10-18-28)25-29-19-11-4-12-20-29/h1-20,23,31H,21-22,24-25,33H2/t31-/m1/s1",IVYLNCUETJNNJU-WJOKGBTCSA-N,NC(Cc1ccccc1)=CC(=O)[C@@H](Cc2ccccc2)N(Cc3ccccc3)Cc4ccccc4,-7.66334373380,0.00000000000,1,G1,460.62100,5.95450,143.48840,35,3,1,3,11,176,4,0,0,4,46.33,208.09386608794,1.64572673983,1164.17735377580
A-2769,(Z)-N-octadec-9-enylhexadecan-1-amide,"InChI=1S/C34H67NO/c1-3-5-7-9-11-13-15-17-18-19-21-23-25-27-29-31-33-35-34(36)32-30-28-26-24-22-20-16-14-12-10-8-6-4-2/h17-18H,3-16,19-33H2,1-2H3,(H,35,36)/b18-17-",VMRGZRVLZQSNHC-ZCXUNETKSA-N,CCCCCCCCCCCCCCCC(=O)NCCCCCCCC\C=C/CCCCCCCC,-7.70407841450,0.00000000000,1,G1,505.91600,11.62140,162.77370,36,1,1,2,30,214,0,0,0,0,29.10,227.80412205439,3.18484916602,444.46282782809
A-2771,"1H-Pyrazole-3-carboxylic acid, 4,5-dihydro-5-oxo-1-(4-sulfophenyl)-4-[(4-sulfophenyl)azo]-, reaction products with guanidine hydrochloride N,N'-bis(mixed Ph, tolyl and xylyl) derivs.","InChI=1S/C16H12N4O9S2.CH5N3.ClH/c21-15-13(18-17-9-1-5-11(6-2-9)30(24,25)26)14(16(22)23)19-20(15)10-3-7-12(8-4-10)31(27,28)29;2-1(3)4;/h1-8,13H,(H,22,23)(H,24,25,26)(H,27,28,29);(H5,2,3,4);1H",BHAUFROZPICYNL-UHFFFAOYSA-N,[H+].[Cl-].NC(N)=N.OC(=O)C1=NN(c2ccc(cc2)[S](O)(=O)=O)C(=O)C1N=Nc3ccc(cc3)[S](O)(=O)=O,-7.75124676170,0.00000000000,1,G1,563.95800,-2.92523,120.58750,36,10,6,19,6,194,2,0,1,3,279.32,210.76285190603,0.00000201273,1428.46870608429
A-2772,"3-(3,5-di-tert-butyl-4-hydroxyphenyl)-N-octadecylpropanamide","InChI=1S/C35H63NO2/c1-8-9-10-11-12-13-14-15-16-17-18-19-20-21-22-23-26-36-32(37)25-24-29-27-30(34(2,3)4)33(38)31(28-29)35(5,6)7/h27-28,38H,8-26H2,1-7H3,(H,36,37)",HQSOHEURLMFXBX-UHFFFAOYSA-N,CCCCCCCCCCCCCCCCCCNC(=O)CCc1cc(c(O)c(c1)C(C)(C)C)C(C)(C)C,-7.72418900200,0.00000000000,1,G1,529.89400,10.29750,166.38350,38,2,2,3,20,220,1,0,0,1,49.33,236.52034247285,2.13133131186,734.11493384632
A-2773,"3-(3,5-di-tert-butyl-4-hydroxyphenyl)-N-{6-[3-(3,5-di-tert-butyl-4-hydroxyphenyl)propanamido]hexyl}propanamide","InChI=1S/C40H64N2O4/c1-37(2,3)29-23-27(24-30(35(29)45)38(4,5)6)17-19-33(43)41-21-15-13-14-16-22-42-34(44)20-18-28-25-31(39(7,8)9)36(46)32(26-28)40(10,11)12/h23-26,45-46H,13-22H2,1-12H3,(H,41,43)(H,42,44)",OKOBUGCCXMIKDM-UHFFFAOYSA-N,CC(C)(C)c1cc(CCC(=O)NCCCCCCNC(=O)CCc2cc(c(O)c(c2)C(C)(C)C)C(C)(C)C)cc(c1O)C(C)(C)C,-7.80411352390,1.00000000000,2,G2,636.96200,8.64600,192.14300,46,4,4,6,13,258,2,0,0,2,98.66,279.71811260036,1.71250714316,1157.46002005868
A-2775,4-chloro-2-(2-chlorobenzoyl)aniline,"InChI=1S/C13H9Cl2NO/c14-8-5-6-12(16)10(7-8)13(17)9-3-1-2-4-11(9)15/h1-7H,16H2",KWZYIAJRFJVQDO-UHFFFAOYSA-N,Nc1ccc(Cl)cc1C(=O)c2ccccc2Cl,-7.42508893830,0.00000000000,1,G1,266.12700,3.80660,70.74890,17,2,1,4,2,86,2,0,0,2,43.09,108.96138469078,2.51313205142,581.38218751736
A-2776,4-{4-[(diphenoxyphosphoryl)oxy]phenyl}phenyl diphenyl phosphate,"InChI=1S/C36H28O8P2/c37-45(39-31-13-5-1-6-14-31,40-32-15-7-2-8-16-32)43-35-25-21-29(22-26-35)30-23-27-36(28-24-30)44-46(38,41-33-17-9-3-10-18-33)42-34-19-11-4-12-20-34/h1-28H",GXLTXCWSKKOKIR-UHFFFAOYSA-N,O=[P](Oc1ccccc1)(Oc2ccccc2)Oc3ccc(cc3)c4ccc(O[P](=O)(Oc5ccccc5)Oc6ccccc6)cc4,-7.81328735700,0.00000000000,1,G1,650.56000,10.64340,176.62700,46,8,0,10,13,230,6,0,0,6,89.52,266.49736687581,1.16881862790,1686.82005327552
A-2777,Pigment red 178,InChI=1S/C48H26N6O4/c55-45-37-23-19-33-35-21-25-39-44-40(48(58)54(47(39)57)32-17-13-30(14-18-32)52-50-28-9-5-2-6-10-28)26-22-36(42(35)44)34-20-24-38(43(37)41(33)34)46(56)53(45)31-15-11-29(12-16-31)51-49-27-7-3-1-4-8-27/h1-26H,PXUJYZVHENREBB-UHFFFAOYSA-N,O=C1N(c2ccc(cc2)N=Nc3ccccc3)C(=O)c4ccc5c6ccc7C(=O)N(c8ccc(cc8)N=Nc9ccccc9)C(=O)c%10ccc(c%11ccc1c4c5%11)c6c7%10,-7.87550922420,0.00000000000,1,G1,750.77400,10.77220,230.00600,58,10,0,10,6,272,11,0,0,11,127.58,326.10669991867,1.05129958028,3340.50510405184
A-2778,"N-(10-benzamido-6,13-diacetamido-2,9-diethoxy-5,12-dioxa-7,14-diazapentacen-3-yl)benzamide","InChI=1S/C40H34N6O8/c1-5-51-29-17-27-31(19-25(29)45-39(49)23-13-9-7-10-14-23)53-37-34(42-22(4)48)36-38(33(35(37)43-27)41-21(3)47)54-32-20-26(30(52-6-2)18-28(32)44-36)46-40(50)24-15-11-8-12-16-24/h7-20H,5-6H2,1-4H3,(H,41,47)(H,42,48)(H,45,49)(H,46,50)",RVIBUAHWQKVQEF-UHFFFAOYSA-N,CCOc1cc2N=C3C(=C4Oc5cc(NC(=O)c6ccccc6)c(OCC)cc5N=C4C(=C3Oc2cc1NC(=O)c7ccccc7)NC(C)=O)NC(C)=O,-7.86138265010,0.00000000000,1,G1,726.74600,7.01940,200.84180,54,10,4,14,10,272,5,0,2,7,178.04,308.38790180502,1.39100937448,2298.43151213173
A-2779,N-octadecyloctadecanamide,"InChI=1S/C36H73NO/c1-3-5-7-9-11-13-15-17-19-21-23-25-27-29-31-33-35-37-36(38)34-32-30-28-26-24-22-20-18-16-14-12-10-8-6-4-2/h3-35H2,1-2H3,(H,37,38)",DJWFNQUDPJTSAD-UHFFFAOYSA-N,CCCCCCCCCCCCCCCCCCNC(=O)CCCCCCCCCCCCCCCCC,-7.72915344600,0.35207525840,2,G3,535.98600,12.62560,172.10170,38,1,1,2,33,228,0,0,0,0,29.10,241.22360931536,3.13720466165,435.05819304992
A-2781,aluminium(3+) ion borate,InChI=1S/Al.BO3/c;2-1(3)4/q+3;-3,OJMOMXZKOWKUTA-UHFFFAOYSA-N,[Al+3].[O-]B([O-])[O-],-6.93344173010,0.00000000000,1,G1,85.79100,-4.32860,11.50800,5,3,0,5,0,24,0,0,0,0,69.18,40.55803027288,0.00000000000,11.60964047444
A-2783,nitriloborane,InChI=1S/BN/c1-2,PZNSFCLAULLKQX-UHFFFAOYSA-N,B#N,-6.39478427900,0.00000000000,1,G1,24.81900,-0.36572,7.47900,2,1,0,2,0,8,0,0,0,0,23.79,13.91062205977,3.00000000000,6.75488750216
A-2785,"4-({3,5-bis[(2,6-di-tert-butyl-4-hydroxyphenyl)methyl]-2,4,6-trimethylphenyl}methyl)-3,5-di-tert-butylphenol","InChI=1S/C54H78O3/c1-31-37(22-34-25-40(49(4,5)6)46(55)41(26-34)50(7,8)9)32(2)39(24-36-29-44(53(16,17)18)48(57)45(30-36)54(19,20)21)33(3)38(31)23-35-27-42(51(10,11)12)47(56)43(28-35)52(13,14)15/h25-30,55-57H,22-24H2,1-21H3",VSAWBBYYMBQKIK-UHFFFAOYSA-N,Cc1c(Cc2cc(c(O)c(c2)C(C)(C)C)C(C)(C)C)c(C)c(Cc3cc(c(O)c(c3)C(C)(C)C)C(C)(C)C)c(C)c1Cc4cc(c(O)c(c4)C(C)(C)C)C(C)(C)C,-7.98147364590,1.04602573920,2,G2,775.21500,14.28606,245.59140,57,3,3,3,6,312,4,0,0,4,60.69,347.93365042618,2.10086172476,1777.66002271164
A-2788,4-(2-phenylpropan-2-yl)-N-[4-(2-phenylpropan-2-yl)phenyl]aniline,"InChI=1S/C30H31N/c1-29(2,23-11-7-5-8-12-23)25-15-19-27(20-16-25)31-28-21-17-26(18-22-28)30(3,4)24-13-9-6-10-14-24/h5-22,31H,1-4H3",UJAWGGOCYUPCPS-UHFFFAOYSA-N,CC(C)(c1ccccc1)c2ccc(Nc3ccc(cc3)C(C)(C)c4ccccc4)cc2,-7.78200708210,0.00000000000,1,G1,405.58500,8.08200,133.30670,31,1,1,1,6,156,4,0,0,4,12.03,186.34220060768,1.48867566236,1013.66613427177
A-2789,"2-[7-(diethylamino)-2-oxo-2H-chromen-3-yl]-1,3-benzoxazole-5-sulfonamide","InChI=1S/C20H19N3O5S/c1-3-23(4-2)13-6-5-12-9-15(20(24)28-18(12)10-13)19-22-16-11-14(29(21,25)26)7-8-17(16)27-19/h5-11H,3-4H2,1-2H3,(H2,21,25,26)",SDUIURJVOCHJCO-UHFFFAOYSA-N,CCN(CC)c1ccc2C=C(C(=O)Oc2c1)c3oc4ccc(cc4n3)[S](N)(=O)=O,-7.83109841330,0.00000000000,1,G1,413.45500,3.09480,110.42120,29,7,1,9,5,150,4,0,0,4,119.64,166.15241127533,1.82050023169,1384.52890468774
A-2790,Indanthrene,"InChI=1S/C28H14N2O4/c31-25-13-5-1-3-7-15(13)27(33)21-17(25)9-11-19-23(21)29-20-12-10-18-22(24(20)30-19)28(34)16-8-4-2-6-14(16)26(18)32/h1-12,29-30H",UHOKSCJSTAHBSO-UHFFFAOYSA-N,O=C1c2ccccc2C(=O)c3c4Nc5ccc6C(=O)c7ccccc7C(=O)c6c5Nc4ccc13,-7.94687456330,0.00000000000,1,G1,442.43000,4.14060,136.44540,34,4,2,6,0,160,7,0,0,7,99.86,188.60677467198,1.72316729110,2099.97119561194
A-2792,3-{3-[(2-ethylhexyl)oxy]propyl}-1-{5-[({3-[(2-ethylhexyl)oxy]propyl}carbamoyl)amino]naphthalen-1-yl}urea,"InChI=1S/C34H56N4O4/c1-5-9-15-27(7-3)25-41-23-13-21-35-33(39)37-31-19-11-18-30-29(31)17-12-20-32(30)38-34(40)36-22-14-24-42-26-28(8-4)16-10-6-2/h11-12,17-20,27-28H,5-10,13-16,21-26H2,1-4H3,(H2,35,37,39)(H2,36,38,40)",NZJJSYLOGZGJHU-UHFFFAOYSA-N,CCCCC(CC)COCCCNC(=O)Nc1cccc2c(NC(=O)NCCCOCC(CC)CCCC)cccc12,-8.06807151960,0.00000000000,1,G1,584.84600,8.32900,175.47480,42,4,4,8,22,236,2,0,0,2,100.72,253.62126179028,1.73968191513,950.51903367642
A-2794,"2-[9-(1-{[3-(3-tert-butyl-4-hydroxy-5-methylphenyl)propanoyl]oxy}-2-methylpropan-2-yl)-2,4,8,10-tetraoxaspiro[5.5]undecan-3-yl]-2-methylpropyl 3-(3-tert-butyl-4-hydroxy-5-methylphenyl)propanoate","InChI=1S/C43H64O10/c1-27-17-29(19-31(35(27)46)39(3,4)5)13-15-33(44)48-21-41(9,10)37-50-23-43(24-51-37)25-52-38(53-26-43)42(11,12)22-49-34(45)16-14-30-18-28(2)36(47)32(20-30)40(6,7)8/h17-20,37-38,46-47H,13-16,21-26H2,1-12H3",CGRTZESQZZGAAU-UHFFFAOYSA-N,Cc1cc(CCC(=O)OCC(C)(C)[CH]2OC[C]3(CO2)CO[CH](OC3)C(C)(C)COC(=O)CCc4cc(C)c(O)c(c4)C(C)(C)C)cc(c1O)C(C)(C)C,-8.26774356410,0.00000000000,1,G1,740.97500,7.74604,203.02660,53,10,2,10,12,296,2,2,2,4,129.98,316.38282364632,1.18688748376,1471.04955447570
A-2795,"titanium(4+) ion bis(2,6-difluoro-3-(1H-pyrrol-1-yl)benzen-1-ide) bis(cyclopenta-2,4-dien-1-ide)","InChI=1S/2C10H6F2N.2C5H5.Ti/c2*11-8-3-4-10(9(12)7-8)13-5-1-2-6-13;2*1-2-4-5-3-1;/h2*1,3-7H;2*1-5H;/q4*-1;+4",UWVBGISRTRNOCI-UHFFFAOYSA-N,[Ti+4].Fc1ccc(N2C=C[C-]=C2)c(F)c1.Fc3ccc(N4C=C[C-]=C4)c(F)c3.[cH-]5cccc5.[cH-]6cccc6,-8.12578939160,0.00000000000,1,G1,534.37900,7.91988,133.11200,37,2,0,7,2,184,6,0,0,6,9.86,228.21993153199,0.00000018736,1217.35489450672
A-2796,"3-(1,3-benzothiazol-2-yl)-7-(diethylamino)-2-oxo-2H-chromene-4-carbonitrile","InChI=1S/C21H17N3O2S/c1-3-24(4-2)13-9-10-14-15(12-22)19(21(25)26-17(14)11-13)20-23-16-7-5-6-8-18(16)27-20/h5-11H,3-4H2,1-2H3",NDKYYKABKLOOAP-UHFFFAOYSA-N,CCN(CC)c1ccc2c(OC(=O)C(=C2C#N)c3sc4ccccc4n3)c1,-8.09743432410,0.00000000000,1,G1,375.45300,4.78758,109.37400,27,6,0,6,4,134,4,0,0,4,70.13,159.65530048810,1.96608802195,1212.98040953494
A-2797,4-(2-{4-[2-(3-cyanophenyl)ethenyl]phenyl}ethenyl)benzonitrile,InChI=1S/C24H16N2/c25-17-23-14-11-21(12-15-23)9-6-19-4-7-20(8-5-19)10-13-22-2-1-3-24(16-22)18-26/h1-16H,XSPWINZRSAKTKX-UHFFFAOYSA-N,N#Cc1ccc(C=Cc2ccc(cc2)C=Cc3cccc(c3)C#N)cc1,-8.12372884560,0.00000000000,1,G1,332.40600,5.77076,106.61200,26,2,0,2,4,122,3,0,0,3,47.58,153.14119751657,1.67544473765,1025.30902116802
A-2798,2-[(E)-2-(2-methoxy-4-{3-methoxy-4-[(E)-2-[2-oxo-1-(phenylcarbamoyl)propyl]diazen-1-yl]phenyl}phenyl)diazen-1-yl]-3-oxo-N-phenylbutanamide,"InChI=1S/C34H32N6O6/c1-21(41)31(33(43)35-25-11-7-5-8-12-25)39-37-27-17-15-23(19-29(27)45-3)24-16-18-28(30(20-24)46-4)38-40-32(22(2)42)34(44)36-26-13-9-6-10-14-26/h5-20,31-32H,1-4H3,(H,35,43)(H,36,44)",DMPXHEMGDYKSFL-UHFFFAOYSA-N,COc1cc(ccc1N=NC(C(C)=O)C(=O)Nc2ccccc2)c3ccc(N=NC(C(C)=O)C(=O)Nc4ccccc4)c(OC)c3,-8.61676669640,0.00000000000,1,G1,620.66600,6.73080,173.09540,46,10,2,12,13,234,4,0,0,4,160.24,265.11856579704,1.52744868875,1644.86767716858
A-2801,tris(2-ethylhexyl) phosphate,"InChI=1S/C24H51O4P/c1-7-13-16-22(10-4)19-26-29(25,27-20-23(11-5)17-14-8-2)28-21-24(12-6)18-15-9-3/h22-24H,7-21H2,1-6H3",GTVWRXDRKAHEAD-UHFFFAOYSA-N,CCCCC(CC)CO[P](=O)(OCC(CC)CCCC)OCC(CC)CCCC,-8.85998044000,1.54274311248,5,G4,434.64200,8.79350,125.38050,29,4,0,5,21,176,0,0,0,0,44.76,182.02316602195,4.90901005556,345.28324787197
A-2802,"2-(diphenyl-1,3,5-triazin-2-yl)-5-(hexyloxy)phenol","InChI=1S/C27H27N3O2/c1-2-3-4-11-18-32-22-16-17-23(24(31)19-22)27-29-25(20-12-7-5-8-13-20)28-26(30-27)21-14-9-6-10-15-21/h5-10,12-17,19,31H,2-4,11,18H2,1H3",LEVFXWNQQSSNAC-UHFFFAOYSA-N,CCCCCCOc1ccc(c(O)c1)c2nc(nc(n2)c3ccccc3)c4ccccc4,-9.15181096990,0.00000000000,1,G1,425.53200,6.53730,127.43680,32,5,1,5,9,162,4,0,0,4,68.13,188.35906134861,1.66415586835,1090.41697620383