ID,Name,InChI,InChIKey,SMILES,Solubility,SD,Ocurrences,Group,MolWt,MolLogP,MolMR,HeavyAtomCount,NumHAcceptors,NumHDonors,NumHeteroatoms,NumRotatableBonds,NumValenceElectrons,NumAromaticRings,NumSaturatedRings,NumAliphaticRings,RingCount,TPSA,LabuteASA,BalabanJ,BertzCT
A-1409,1-(propan-2-yl)naphthalene; 2-(propan-2-yl)naphthalene,"InChI=1S/C13H14/c1-10(2)12-9-5-7-11-6-3-4-8-13(11)12/h3-10H,1-2H3",PMPBFICDXLLSRM-UHFFFAOYSA-N,CC(C)c1cccc2ccccc12,-4.78239355510,0.00000000000,1,G1,170.25500,3.96320,58.03700,13,0,0,0,1,66,2,0,0,2,0.00,79.20789399442,2.75673376207,407.81275369561
A-1410,2-(dimethylamino)-2-[(4-methylphenyl)methyl]-1-[4-(morpholin-4-yl)phenyl]butan-1-one,"InChI=1S/C24H32N2O2/c1-5-24(25(3)4,18-20-8-6-19(2)7-9-20)23(27)21-10-12-22(13-11-21)26-14-16-28-17-15-26/h6-13H,5,14-18H2,1-4H3",PUBNJSZGANKUGX-UHFFFAOYSA-N,CCC(Cc1ccc(C)cc1)(N(C)C)C(=O)c2ccc(cc2)N3CCOCC3,-5.13323315230,0.10051906285,3,G5,380.53200,3.96742,115.39650,28,4,0,4,7,150,2,1,1,3,32.78,168.65670621475,1.84855602157,777.25737686506
A-1411,4-methoxy-3-nitro-N-phenylbenzamide,"InChI=1S/C14H12N2O4/c1-20-13-8-7-10(9-12(13)16(18)19)14(17)15-11-5-3-2-4-6-11/h2-9H,1H3,(H,15,17)",YKOCPBMVMBUTAX-UHFFFAOYSA-N,COc1ccc(cc1[N+]([O-])=O)C(=O)Nc2ccccc2,-4.98782580880,0.00000000000,1,G1,272.26000,2.85570,74.04360,20,4,1,6,4,102,2,0,0,2,81.47,114.69628679001,2.26568815888,640.87709254670
A-1414,oxostibanyl stibinate,InChI=1S/3O.2Sb/q3*-2;2*+3,GHPGOEFPKIHBNM-UHFFFAOYSA-N,[O--].[O--].[O--].[Sb+3].[Sb+3],-5.02375480390,0.65310967731,10,G4,291.51700,-1.11800,13.56750,5,0,0,5,0,28,0,0,0,0,85.50,64.95184377674,0.00000000000,4.85475297227
A-1415,"1,3,5-triazinane-2,4,6-trione; 1,3,5-triazine-2,4,6-triamine","InChI=1S/C3H6N6.C3H3N3O3/c4-1-7-2(5)9-3(6)8-1;7-1-4-2(8)6-3(9)5-1/h(H6,4,5,6,7,8,9);(H3,4,5,6,7,8,9)",ZQKXQUJXLSSJCH-UHFFFAOYSA-N,Nc1nc(N)nc(N)n1.O=C2NC(=O)NC(=O)N2,-4.97551350230,0.29129321152,3,G5,255.19800,-3.63030,61.36830,18,9,6,12,0,96,2,0,0,2,215.31,97.31645475594,0.00000018000,569.20445905721
A-1417,trizinc(2+) ion diphosphate,"InChI=1S/2H3O4P.3Zn/c2*1-5(2,3)4;;;/h2*(H3,1,2,3,4);;;/q;;3*+2/p-6",LRXTYHSAJDENHV-UHFFFAOYSA-H,[Zn++].[Zn++].[Zn++].[O-][P]([O-])([O-])=O.[O-][P]([O-])([O-])=O,-5.15534728560,0.00000000000,1,G1,386.11000,-5.65670,15.21300,13,8,0,13,0,64,0,0,0,0,172.50,111.89474805678,-0.00000002667,129.69862761618
A-1418,1-(4-chlorophenyl)-2-nitrobenzene,InChI=1S/C12H8ClNO2/c13-10-7-5-9(6-8-10)11-3-1-2-4-12(11)14(15)16/h1-8H,OMNWKPZIFZJANV-UHFFFAOYSA-N,[O-][N+](=O)c1ccccc1c2ccc(Cl)cc2,-4.93720945610,0.00000000000,1,G1,233.65400,3.91520,63.54240,16,2,0,4,2,80,2,0,0,2,43.14,97.44473927494,2.55167509115,522.79689907839
A-1420,"1-(2,3,8,8-tetramethyl-1,3,4,5,6,7-hexahydronaphthalen-2-yl)ethanone","InChI=1S/C16H26O/c1-11-9-13-7-6-8-15(3,4)14(13)10-16(11,5)12(2)17/h11H,6-10H2,1-5H3",FVUGZKDGWGKCFE-UHFFFAOYSA-N,CC1CC2=C(CC1(C)C(C)=O)C(C)(C)CCC2,-4.94179131470,0.00000000000,1,G1,234.38300,4.51830,71.84400,17,1,0,1,1,96,0,0,2,2,17.07,105.67363950458,2.40308622040,374.98641735780
A-1421,Molybdenum 2-ethylhexanoate,"InChI=1S/C8H16O2.Mo/c1-3-5-6-7(4-2)8(9)10;/h7H,3-6H2,1-2H3,(H,9,10);/p-1",VXIWJTFRRIZCQJ-UHFFFAOYSA-M,[Mo].CCCCC(CC)C([O-])=O,-3.43516860530,0.41311161010,2,G3,239.14600,0.95020,38.31300,11,2,0,3,5,66,0,0,0,0,40.13,82.63768977263,0.00000000000,104.26518047668
A-1422,"5-chloro-2-(2,4-dichlorophenoxy)aniline","InChI=1S/C12H8Cl3NO/c13-7-1-3-11(9(15)5-7)17-12-4-2-8(14)6-10(12)16/h1-6H,16H2",SOOLDKUMSVNBIW-UHFFFAOYSA-N,Nc1cc(Cl)ccc1Oc2ccc(Cl)cc2Cl,-5.04526428640,0.00000000000,1,G1,288.56100,5.02130,72.40040,17,2,1,5,2,88,2,0,0,2,35.25,113.85173193273,2.31223783549,507.94215924320
A-1423,dihexyl adipate,"InChI=1S/C18H34O4/c1-3-5-7-11-15-21-17(19)13-9-10-14-18(20)22-16-12-8-6-4-2/h3-16H2,1-2H3",HHECSPXBQJHZAF-UHFFFAOYSA-N,CCCCCCOC(=O)CCCCC(=O)OCCCCCC,-5.08260034850,0.00000000000,1,G1,314.46600,4.79380,88.67000,22,4,0,4,15,130,0,0,0,0,52.60,135.49340163167,3.32070384505,248.26072121928
A-1425,2-ethylhexyl 2-{[dibutyl({2-[(2-ethylhexyl)oxy]-2-oxoethyl}sulfanyl)stannyl]sulfanyl}acetate,"InChI=1S/2C10H20O2S.2C4H9.Sn/c2*1-3-5-6-9(4-2)7-12-10(11)8-13;2*1-3-4-2;/h2*9,13H,3-8H2,1-2H3;2*1,3-4H2,2H3;/q;;;;+2/p-2",PRIUALOJYOZZOJ-UHFFFAOYSA-L,CCCCC(CC)COC(=O)CS[Sn](CCCC)(CCCC)SCC(=O)OCC(CC)CCCC,-5.39428671210,0.00000000000,1,G1,639.59700,9.01440,158.63000,35,6,0,7,24,208,0,0,0,0,52.60,226.91294281802,4.94459908068,487.08666773271
A-1428,strontium 4-[(5-chloro-4-methyl-2-sulphonatophenyl)azo]-3-hydroxy-2-naphthoate (1:1),"InChI=1S/C18H13ClN2O6S.Sr/c1-9-14(19)7-11(8-15(9)28(25,26)27)20-21-16-12-5-3-2-4-10(12)6-13(17(16)22)18(23)24;/h2-8,22H,1H3,(H,23,24)(H,25,26,27);/q;+2/p-2",FTMYMYGLEZHQOM-UHFFFAOYSA-L,[Sr++].Cc1c(Cl)cc(cc1[S](O)(=O)=O)N=Nc2c([O-])c(cc3ccccc23)C([O-])=O,-5.30658284620,0.69897000430,2,G2,506.43400,2.52002,103.65810,29,7,1,11,4,144,3,0,0,3,142.28,207.41671155673,0.00000300000,1260.93130097486
A-1429,"2-(3,8-dimethyl-1,2,3,4,5,6,7,8-octahydroazulen-5-yl)propan-2-yl acetate","InChI=1S/C17H28O2/c1-11-6-8-14(17(4,5)19-13(3)18)10-16-12(2)7-9-15(11)16/h11-12,14H,6-10H2,1-5H3",DRFSOBZVMGLICQ-UHFFFAOYSA-N,CC1CCC(CC2=C1CCC2C)C(C)(C)OC(C)=O,-5.02260251220,0.00000000000,1,G1,264.40900,4.49080,77.77400,19,2,0,2,2,108,0,0,2,2,26.30,117.15212684848,2.19263262510,392.06624547588
A-1431,11-ethyl-5-methylpentadecanoic acid,"InChI=1S/C18H36O2/c1-4-6-13-17(5-2)14-9-7-8-11-16(3)12-10-15-18(19)20/h16-17H,4-15H2,1-3H3,(H,19,20)",DYGIZCLLGGJWQJ-UHFFFAOYSA-N,CCCCC(CC)CCCCCC(C)CCCC(O)=O,-5.05611783710,0.00000000000,1,G1,284.48400,6.04430,87.04180,20,1,1,2,14,120,0,0,0,0,37.30,125.89902282481,3.42831104491,225.45811190640
A-1432,"3,7,11-trimethyldodec-1-yn-3-ol","InChI=1S/C15H28O/c1-6-15(5,16)12-8-11-14(4)10-7-9-13(2)3/h1,13-14,16H,7-12H2,2-5H3",OWRXWSVBJIIORE-UHFFFAOYSA-N,CC(C)CCCC(C)CCCC(C)(O)C#C,-4.95305961900,0.15937938130,2,G3,224.38800,4.00330,71.16080,16,1,1,1,8,94,0,0,0,0,20.23,101.64189977344,3.51698182520,209.96506609616
A-1433,gadolinium,InChI=1S/Gd,UIWYJDYFSGRHKR-UHFFFAOYSA-N,[Gd],-4.79865064540,0.00000000000,1,G1,157.25000,0.00000,0.00000,1,0,0,1,0,8,0,0,0,0,0.00,39.55395841124,0.00000000000,0.00000000000
A-1436,"1,1,2-trifluoro-2-(pentafluoroethoxy)ethene","InChI=1S/C4F8O/c5-1(6)2(7)13-4(11,12)3(8,9)10",GWTYBAOENKSFAY-UHFFFAOYSA-N,FC(F)=C(F)OC(F)(F)C(F)(F)F,-4.95429679290,0.00000000000,1,G1,216.02700,3.19320,22.43700,13,1,0,9,2,78,0,0,0,0,9.23,65.58230279175,4.62890236685,210.67414136612
A-1440,"2,4,4-trimethylpent-1-ene","InChI=1S/C8H16/c1-7(2)6-8(3,4)5/h1,6H2,2-5H3",FXNDIJDIPNCZQJ-UHFFFAOYSA-N,CC(=C)CC(C)(C)C,-4.68832694800,0.00000000000,1,G1,112.21600,2.99870,38.88600,8,0,0,0,1,48,0,0,0,0,0.00,52.60424279642,3.55125292437,82.70165766734
A-1444,"N-phenylaniline; 2,4,4-trimethylpent-1-ene","InChI=1S/C12H11N.C8H16/c1-3-7-11(8-4-1)13-12-9-5-2-6-10-12;1-7(2)6-8(3,4)5/h1-10,13H;1,6H2,2-5H3",NRBLRTXFXBXILY-UHFFFAOYSA-N,CC(=C)CC(C)(C)C.N(c1ccccc1)c2ccccc2,-5.08766261540,0.07880392670,2,G3,281.44300,6.42890,95.05270,21,1,1,1,3,112,2,0,0,2,12.03,129.27412454569,0.00000024029,483.26980197964
A-1445,aluminium(3+) ion magnesium(2+) ion sodium tris(oxosilanebis(olate)),InChI=1S/Al.Mg.Na.3O3Si/c;;;3*1-4(2)3/q+3;+2;+1;3*-2,RILYHWBPLWVCBV-UHFFFAOYSA-N,[Na+].[Mg++].[Al+3].[O-][Si]([O-])=O.[O-][Si]([O-])=O.[O-][Si]([O-])=O,-5.13051468680,0.00000000000,1,G1,302.52600,-12.39040,30.82950,15,9,0,15,0,72,0,0,0,0,189.57,138.06150801647,-0.00000001841,122.90712145793
A-1447,"2,5-bis(tert-butylperoxy)-2,5-dimethylhex-3-yne","InChI=1S/C16H30O4/c1-13(2,3)17-19-15(7,8)11-12-16(9,10)20-18-14(4,5)6/h1-10H3",ODBCKCWTWALFKM-UHFFFAOYSA-N,CC(C)(C)OOC(C)(C)C#CC(C)(C)OOC(C)(C)C,-5.11456852910,0.00000000000,1,G1,286.41200,4.04040,79.78000,20,4,0,4,4,118,0,0,0,0,36.92,123.52537968514,4.59713461678,324.65389843915
A-1448,2-butyloctanoic acid,"InChI=1S/C12H24O2/c1-3-5-7-8-10-11(12(13)14)9-6-4-2/h11H,3-10H2,1-2H3,(H,13,14)",OARDBPIZDHVTCK-UHFFFAOYSA-N,CCCCCCC(CCCC)C(O)=O,-4.95930596670,0.00000000000,1,G1,200.32200,3.84780,59.40980,14,1,1,2,9,84,0,0,0,0,37.30,87.70937013843,3.56981882150,143.25715550266
A-1449,2-ethylhexyl 4-aminobenzoate,"InChI=1S/C15H23NO2/c1-3-5-6-12(4-2)11-18-15(17)13-7-9-14(16)10-8-13/h7-10,12H,3-6,11,16H2,1-2H3",ZJQXUTDROPGVLH-UHFFFAOYSA-N,CCCCC(CC)COC(=O)c1ccc(N)cc1,-5.05439365850,0.00000000000,1,G1,249.35400,3.64200,74.44290,18,3,1,3,7,100,1,0,0,1,52.32,109.33084017563,2.41700405075,359.26128028689
A-1450,calcium bis(12-hydroxyoctadecanoate),"InChI=1S/2C18H36O3.Ca/c2*1-2-3-4-11-14-17(19)15-12-9-7-5-6-8-10-13-16-18(20)21;/h2*17,19H,2-16H2,1H3,(H,20,21);/q;;+2/p-2",RXPKHKBYUIHIGL-UHFFFAOYSA-L,[Ca++].CCCCCCC(O)CCCCCCCCCCC([O-])=O.CCCCCCC(O)CCCCCCCCCCC([O-])=O,-5.46309720700,1.00083084221,13,G4,639.02800,7.55640,177.63960,43,6,2,7,32,252,0,0,0,0,120.72,296.13380338934,-0.00000072727,511.85870946517
A-1451,calcium dioctadecanoate,"InChI=1S/2C18H36O2.Ca/c2*1-2-3-4-5-6-7-8-9-10-11-12-13-14-15-16-17-18(19)20;/h2*2-17H2,1H3,(H,19,20);/q;;+2/p-2",CJZGTCYPCWQAJB-UHFFFAOYSA-L,[Ca++].CCCCCCCCCCCCCCCCCC([O-])=O.CCCCCCCCCCCCCCCCCC([O-])=O,-5.44078747400,2.19167507550,2,G2,607.03000,9.61480,174.86000,41,4,0,5,32,240,0,0,0,0,80.26,286.54533588494,-0.00000068762,453.97231457750
A-1452,"butyl 4,4-bis(tert-butylperoxy)pentanoate","InChI=1S/C17H34O6/c1-9-10-13-19-14(18)11-12-17(8,22-20-15(2,3)4)23-21-16(5,6)7/h9-13H2,1-8H3",BXIQXYOPGBXIEM-UHFFFAOYSA-N,CCCCOC(=O)CCC(C)(OOC(C)(C)C)OOC(C)(C)C,-5.18988134470,0.00000000000,1,G1,334.45300,4.31950,87.35200,23,6,0,6,10,138,0,0,0,0,63.22,140.16616373723,4.54674960231,321.97320488010
A-1453,"2,3-dichloro-1,4-naphthoquinone",InChI=1S/C10H4Cl2O2/c11-7-8(12)10(14)6-4-2-1-3-5(6)9(7)13/h1-4H,SVPKNMBRVBMTLB-UHFFFAOYSA-N,ClC1=C(Cl)C(=O)c2ccccc2C1=O,-5.02377640600,0.79362027106,4,G4,227.04600,2.75480,53.83500,14,2,0,4,0,70,1,0,1,2,34.14,90.12531404522,2.73182736170,431.76527187466
A-1455,"1,3,3-trimethyl-2-oxabicyclo[2.2.2]octane; 1,7,7-trimethylbicyclo[2.2.1]heptan-2-one; 2,2-dimethyl-3-methylidenebicyclo[2.2.1]heptane; 2,6,6-trimethylbicyclo[3.1.1]hept-2-ene","InChI=1S/C10H18O.C10H16O.2C10H16/c1-9(2)8-4-6-10(3,11-9)7-5-8;1-9(2)7-4-5-10(9,3)8(11)6-7;1-7-8-4-5-9(6-8)10(7,2)3;1-7-4-5-8-6-9(7)10(8,2)3/h8H,4-7H2,1-3H3;7H,4-6H2,1-3H3;8-9H,1,4-6H2,2-3H3;4,8-9H,5-6H2,1-3H3",SMPQTZLALIOWBF-UHFFFAOYSA-N,CC1=CCC2CC1C2(C)C.CC3(C)OC4(C)CCC3CC4.CC5(C)C6CCC(C6)C5=C.CC7(C)C8CCC7(C)C(=O)C8,-5.43837060510,0.01490811455,2,G3,578.96600,11.14320,177.26700,42,2,0,2,0,238,0,7,8,8,26.30,259.83869898683,0.00000011206,1089.91748873672
A-1456,3-hydroxy-N-(2-methoxyphenyl)naphthalene-2-carboxamide,"InChI=1S/C18H15NO3.Na/c1-22-17-9-5-4-8-15(17)19-18(21)14-10-12-6-2-3-7-13(12)11-16(14)20;/h2-11,20H,1H3,(H,19,21);/q;+1/p-1",OXXQDUUQLWQUEX-UHFFFAOYSA-M,[Na+].COc1ccccc1NC(=O)c2cc3ccccc3cc2[O-],-5.17651018560,0.00000000000,1,G1,315.30400,0.17830,84.34120,23,3,1,5,3,110,3,0,0,3,61.39,155.93260897416,0.00000192000,848.54435146858
A-1457,oxocadmium,InChI=1S/Cd.O,CXKCTMHTOKXKQT-UHFFFAOYSA-N,O=[Cd],-4.78638293330,0.00000000000,1,G1,128.41100,-0.12130,0.68650,2,1,0,2,0,8,0,0,0,0,17.07,28.82298984977,2.00000000000,2.00000000000
A-1461,1-chloro-2-(trichloromethyl)benzene,"InChI=1S/C7H4Cl4/c8-6-4-2-1-3-5(6)7(9,10)11/h1-4H",MFHPYLFZSCSNST-UHFFFAOYSA-N,Clc1ccccc1C(Cl)(Cl)Cl,-5.04393309650,0.00000000000,1,G1,229.92100,4.16670,50.68900,11,0,0,4,0,60,1,0,0,1,0.00,85.00941014142,3.14110919053,250.86264077829
A-1462,decyl acetate,"InChI=1S/C12H24O2/c1-3-4-5-6-7-8-9-10-11-14-12(2)13/h3-11H2,1-2H3",NUPSHWCALHZGOV-UHFFFAOYSA-N,CCCCCCCCCCOC(C)=O,-4.98575830210,0.00000000000,1,G1,200.32200,3.69020,59.24300,14,2,0,2,9,84,0,0,0,0,26.30,88.02868161574,2.88406461471,132.28341890015
A-1464,2-{methyl[(nonafluorobutyl)sulfonyl]amino}ethyl acrylate,"InChI=1S/C10H10F9NO4S/c1-3-6(21)24-5-4-20(2)25(22,23)10(18,19)8(13,14)7(11,12)9(15,16)17/h3H,1,4-5H2,2H3",KEMCLRGAIUJRAN-UHFFFAOYSA-N,CN(CCOC(=O)C=C)[S](=O)(=O)C(F)(F)C(F)(F)C(F)(F)C(F)(F)F,-5.30874609310,0.00000000000,1,G1,411.24200,2.40290,63.60180,25,4,0,15,8,148,0,0,0,0,63.68,134.61962254372,5.66056552999,614.36587401184
A-1466,2-phenylhexanenitrile,"InChI=1S/C12H15N/c1-2-3-7-12(10-13)11-8-5-4-6-9-11/h4-6,8-9,12H,2-3,7H2,1H3",OTERUZJEJFMEEB-UHFFFAOYSA-N,CCCCC(C#N)c1ccccc1,-3.66235445320,0.00000000000,1,G1,173.25900,3.48398,54.32100,13,1,0,1,4,68,1,0,0,1,23.79,80.01363548735,2.63302004263,270.92599275296
A-1467,"1,1,1-TRICHLORO-2,2,2-TRIFLUOROETHANE","InChI=1S/C2Cl3F3/c3-1(4,5)2(6,7)8",BOSAWIQFTJIYIS-UHFFFAOYSA-N,FC(F)(F)C(Cl)(Cl)Cl,-4.33319239320,0.00000000000,1,G1,187.37500,2.91890,26.34500,8,0,0,6,0,50,0,0,0,0,0.00,58.51059803165,4.02039154318,67.50977500433
A-1468,2-methyldodecan-1-ol,"InChI=1S/C13H28O/c1-13(2)11-9-7-5-3-4-6-8-10-12-14/h13-14H,3-12H2,1-2H3",XUJLWPFSUCHPQL-UHFFFAOYSA-N,CC(C)CCCCCCCCCCO,-5.00079403260,0.31398040773,3,G5,200.36600,4.14560,63.47680,14,1,1,1,10,86,0,0,0,0,20.23,89.91279015278,2.85191717673,99.40868524464
A-1470,N-(2-ethoxyphenyl)-3-hydroxynaphthalene-2-carboxamide,"InChI=1S/C19H17NO3/c1-2-23-18-10-6-5-9-16(18)20-19(22)15-11-13-7-3-4-8-14(13)12-17(15)21/h3-12,21H,2H2,1H3,(H,20,22)",NXIGDUAONGBUKR-UHFFFAOYSA-N,CCOc1ccccc1NC(=O)c2cc3ccccc3cc2O,-5.18660180880,0.00000000000,1,G1,307.34900,4.19640,91.17700,23,3,2,4,4,116,3,0,0,3,58.56,133.88415146584,1.93329438678,858.11258184001
A-1472,calcium oxozirconium,InChI=1S/Ca.O.Zr.2H,HBHGRMNRZXKQAU-UHFFFAOYSA-N,[CaH2].O=[Zr],-4.87307926010,0.74046345911,6,G4,149.31700,-1.03750,9.23050,3,1,0,3,0,14,0,0,0,0,17.07,64.07040778384,0.00000000000,4.75488750216
A-1473,diisopropyl sebacate,"InChI=1S/C16H30O4/c1-13(2)19-15(17)11-9-7-5-6-8-10-12-16(18)20-14(3)4/h13-14H,5-12H2,1-4H3",XFKBBSZEQRFVSL-UHFFFAOYSA-N,CC(C)OC(=O)CCCCCCCCC(=O)OC(C)C,-5.15596121430,0.00000000000,1,G1,286.41200,4.01040,79.39200,20,4,0,4,11,118,0,0,0,0,52.60,122.76351740288,3.28661488808,243.65043753297
A-1474,hexyl 2-hydroxybenzoate,"InChI=1S/C13H18O3/c1-2-3-4-7-10-16-13(15)11-8-5-6-9-12(11)14/h5-6,8-9,14H,2-4,7,10H2,1H3",DUKPKQFHJQGTGU-UHFFFAOYSA-N,CCCCCCOC(=O)c1ccccc1O,-5.04587820760,0.00000000000,1,G1,222.28400,3.12930,62.53130,16,3,1,3,6,88,1,0,0,1,46.53,96.05529900202,2.32977581328,333.70452081251
A-1475,"octadecane-1,12-diol","InChI=1S/C18H38O2/c1-2-3-4-12-15-18(20)16-13-10-8-6-5-7-9-11-14-17-19/h18-20H,2-17H2,1H3",KHLCTMQBMINUNT-UHFFFAOYSA-N,CCCCCCC(O)CCCCCCCCCCCO,-5.15609463060,0.15051499785,2,G3,286.50000,5.21100,88.02160,20,2,2,2,16,122,0,0,0,0,40.46,126.53173447696,3.07171136009,170.80115738264
A-1476,"tetrachlorocyclohexa-2,5-diene-1,4-dione",InChI=1S/C6Cl4O2/c7-1-2(8)6(12)4(10)3(9)5(1)11,UGNWTBMOAKPKBL-UHFFFAOYSA-N,ClC1=C(Cl)C(=O)C(=C(Cl)C1=O)Cl,-5.08968614360,1.04844307180,2,G2,245.87600,2.51660,47.47800,12,2,0,6,0,64,0,0,1,1,34.14,87.71503348953,3.31645221171,277.45724820935
A-1478,potassium hexadecyl hydrogen phosphate,"InChI=1S/C16H35O4P.K/c1-2-3-4-5-6-7-8-9-10-11-12-13-14-15-16-20-21(17,18)19;/h2-16H2,1H3,(H2,17,18,19);/q;+1/p-1",RMGVATURDVPNOZ-UHFFFAOYSA-M,[K+].CCCCCCCCCCCCCCCCO[P](O)([O-])=O,-3.26025935360,0.01483533535,2,G3,360.51600,1.94900,86.08930,22,3,1,6,16,128,0,0,0,0,69.59,179.38757084752,0.00000000000,258.53036095336
A-1479,4-[(2-chloroethyl)(ethyl)amino]benzaldehyde,"InChI=1S/C11H14ClNO/c1-2-13(8-7-12)11-5-3-10(9-14)4-6-11/h3-6,9H,2,7-8H2,1H3",MFUFJCIFNHFEDW-UHFFFAOYSA-N,CCN(CCCl)c1ccc(C=O)cc1,-3.03344837470,0.00000000000,1,G1,211.69200,2.56420,60.43650,14,2,0,3,5,76,1,0,0,1,20.31,89.48073568861,2.77378021918,283.84393503174
A-1481,3-methylbutyl propanoate,"InChI=1S/C8H16O2/c1-4-8(9)10-6-5-7(2)3/h7H,4-6H2,1-3H3",XAOGXQMKWQFZEM-UHFFFAOYSA-N,CCC(=O)OCCC(C)C,-2.87007364100,0.00000000000,1,G1,144.21400,1.98570,40.70500,10,2,0,2,4,60,0,0,0,0,26.30,62.56891315816,3.11596431027,97.43071362054
A-1482,"(2E)-1-(2,6,6-trimethylcyclohex-1-en-1-yl)but-2-en-1-one","InChI=1S/C15H26O/c1-7-15(6)9-8-12(14(4,5)16)10-13(15)11(2)3/h7,12-13,16H,1-2,8-10H2,3-6H3/t12-,13+,15-/m1/s1",GFJIQNADMLPFOW-VNHYZAJKSA-N,CC(=C)[C@@H]1C[C@@H](CC[C@@]1(C)C=C)C(C)(C)O,-3.05927837220,0.00000000000,1,G1,222.37200,3.94200,70.24680,16,1,1,1,3,92,0,1,1,1,20.23,100.25763716368,2.89512480636,284.30030179806
A-1483,chromium(3+) ion hydrogen 3-[(2-ethylhexyl)oxy]propan-1-amine (Z)-2-[2-(5-nitro-2-oxido-3-sulfonatophenyl)hydrazin-1-ylidene]-3-oxo-N-phenylbutcarboximidate hydroxide,"InChI=1S/C16H14N4O8S.C11H25NO.Cr.H2O/c1-9(21)14(16(23)17-10-5-3-2-4-6-10)19-18-12-7-11(20(24)25)8-13(15(12)22)29(26,27)28;1-3-5-7-11(4-2)10-13-9-6-8-12;;/h2-8H,1H3,(H4,17,18,19,21,22,23,26,27,28);11H,3-10,12H2,1-2H3;;1H2/q;;+3;/p-3",OBGJRNHPDJSGBR-UHFFFAOYSA-K,[OH-].[Cr+3].CCCCC(CC)COCCCN.CC(=O)\C(=N/Nc1cc(cc(c1[O-])[S]([O-])(=O)=O)[N+]([O-])=O)C(=O)[N-]c2ccccc2.[H+],-3.54258738690,0.06469032490,4,G5,676.68900,3.66280,157.55650,44,13,2,17,16,243,2,0,0,2,261.28,268.62503346959,-0.00000094500,1334.74095273869
A-1484,oct-1-en-3-ol,"InChI=1S/C8H16O/c1-3-5-6-7-8(9)4-2/h4,8-9H,2-3,5-7H2,1H3",VSMOENVRRABVKN-UHFFFAOYSA-N,CCCCCC(O)C=C,-1.82193171460,0.00000000000,1,G1,128.21500,2.11360,40.34580,9,1,1,1,5,54,0,0,0,0,20.23,57.39847654862,2.96362233860,68.96788691073
A-1485,hexafluoroprop-1-ene,"InChI=1S/C3F6/c4-1(2(5)6)3(7,8)9",HCDGVLDPFQMKDK-UHFFFAOYSA-N,FC(F)=C(F)C(F)(F)F,-2.88879828330,0.05049606575,3,G5,150.02100,2.62630,16.40500,9,0,0,6,0,54,0,0,0,0,0.00,45.77274464200,4.39951587047,125.72862410468
A-1488,"(8R,9S,13S,14S,17S)-13-ethyl-3-methoxy-6,7,8,9,11,12,14,15,16,17-decahydrocyclopenta[a]phenanthren-17-ol","InChI=1S/C20H28O2/c1-3-20-11-10-16-15-7-5-14(22-2)12-13(15)4-6-17(16)18(20)8-9-19(20)21/h5,7,12,16-19,21H,3-4,6,8-11H2,1-2H3/t16-,17-,18+,19+,20+/m1/s1",CNPGMVAEOUQDBN-SLHNCBLASA-N,CC[C@]12CC[C@H]3[C@@H](CCc4cc(OC)ccc34)[C@@H]1CC[C@@H]2O,-4.87570065300,0.00000000000,1,G1,300.44200,4.30230,88.23480,22,2,1,2,2,120,1,2,3,4,29.46,133.43087824216,1.68477726191,566.82571365398
A-1489,4-[2-(4-hydroxycyclohexyl)propan-2-yl]cyclohexan-1-ol,"InChI=1S/C15H28O2/c1-15(2,11-3-7-13(16)8-4-11)12-5-9-14(17)10-6-12/h11-14,16-17H,3-10H2,1-2H3",CDBAMNGURPMUTG-UHFFFAOYSA-N,CC(C)(C1CCC(O)CC1)C2CCC(O)CC2,-3.09760974880,0.00000000000,1,G1,240.38700,3.11480,69.71060,17,2,2,2,2,100,0,2,2,2,40.46,105.42524582672,1.92758998626,209.30637471046
A-1490,"9-[2-(2-methoxyethoxy)ethoxy]-9-[3-(oxiran-2-ylmethoxy)propyl]-2,5,8,10,13,16-hexaoxa-9-silaheptadecane","InChI=1S/C21H44O11Si/c1-22-6-9-25-12-15-30-33(31-16-13-26-10-7-23-2,32-17-14-27-11-8-24-3)18-4-5-28-19-21-20-29-21/h21H,4-20H2,1-3H3",BAPRPWHVXHPSHD-UHFFFAOYSA-N,COCCOCCO[Si](CCCOCC1CO1)(OCCOCCOC)OCCOCCOC,1.58231333830,0.00000000000,1,G1,500.65800,0.76960,121.67800,33,11,0,12,27,198,0,1,1,1,104.83,199.03223251891,2.51539730313,374.87815379254
A-1494,disodium 6-hydroxy-5-[(E)-2-(4-sulfonatophenyl)diazen-1-yl]naphthalene-2-sulfonate,"InChI=1S/C16H12N2O7S2.2Na/c19-15-8-1-10-9-13(27(23,24)25)6-7-14(10)16(15)18-17-11-2-4-12(5-3-11)26(20,21)22;;/h1-9,17H,(H,20,21,22)(H,23,24,25);;/q;2*+1/p-2/b18-16+;;",TXVRKNUZLYFDTJ-DDVLFWKVSA-L,[Na+].[Na+].[O-][S](=O)(=O)c1ccc(N\N=C2\C(=O)C=Cc3cc(ccc23)[S]([O-])(=O)=O)cc1,-1.37674691520,0.00000000000,1,G1,452.37700,-5.08510,93.01110,29,9,1,13,4,140,2,0,1,3,155.86,210.91374565269,0.00000210250,1206.32942879403
A-1495,"1-chloro-1,1-difluoroethane","InChI=1S/C2H3ClF2/c1-2(3,4)5/h1H3",BHNZEZWIUMJCGF-UHFFFAOYSA-N,CC(F)(F)Cl,-1.72339085360,0.06631278265,2,G3,100.49500,1.83790,16.47400,5,0,0,3,0,32,0,0,0,0,0.00,33.73853017496,3.02371578407,23.11941547876
A-1496,3-(methoxycarbonyl)-5-nitrobenzoic acid,"InChI=1S/C9H7NO6/c1-16-9(13)6-2-5(8(11)12)3-7(4-6)10(14)15/h2-4H,1H3,(H,11,12)",ZCRNIIJXDRYWDU-UHFFFAOYSA-N,COC(=O)c1cc(cc(c1)[N+]([O-])=O)C(O)=O,-2.07372992370,0.00000000000,1,G1,225.15600,1.07960,51.39520,16,5,1,7,3,84,1,0,0,1,106.74,89.41002836698,3.34798689315,434.81705661544
A-1497,difluoromethane,InChI=1S/CH2F2/c2-1-3/h1H2,RWRIWBAIICGTTQ-UHFFFAOYSA-N,FCF,-1.43744179200,0.19441476331,3,G5,52.02300,0.88290,7.08300,3,0,0,2,0,20,0,0,0,0,0.00,17.07032183368,1.63299316186,2.75488750216