ID,Name,InChI,InChIKey,SMILES,Solubility,SD,Ocurrences,Group,MolWt,MolLogP,MolMR,HeavyAtomCount,NumHAcceptors,NumHDonors,NumHeteroatoms,NumRotatableBonds,NumValenceElectrons,NumAromaticRings,NumSaturatedRings,NumAliphaticRings,RingCount,TPSA,LabuteASA,BalabanJ,BertzCT
A-1710,"tert-butyl 3,5,5-trimethylhexaneperoxoate","InChI=1S/C13H26O3/c1-10(9-12(2,3)4)8-11(14)15-16-13(5,6)7/h10H,8-9H2,1-7H3",VSJBBIJIXZVVLQ-UHFFFAOYSA-N,CC(CC(=O)OOC(C)(C)C)CC(C)(C)C,-4.21009610150,0.00000000000,1,G1,230.34800,3.72210,64.78300,16,3,0,3,4,96,0,0,0,0,35.53,99.43646427538,3.88242808627,220.31265564208
A-1712,"N~2~-(4,6-diamino-1,3,5-triazin-2-yl)-1,3,5-triazine-2,4,6-triamine","InChI=1S/C6H9N11/c7-1-11-2(8)14-5(13-1)17-6-15-3(9)12-4(10)16-6/h(H9,7,8,9,10,11,12,13,14,15,16,17)",YZEZMSPGIPTEBA-UHFFFAOYSA-N,Nc1nc(N)nc(Nc2nc(N)nc(N)n2)n1,-4.22533697820,0.26236641020,5,G5,235.21500,-1.87100,60.58630,17,11,5,11,2,88,2,0,0,2,193.45,94.71581018290,2.30519863999,461.65307394468
A-1713,butyl 2-({[(2-butoxy-2-oxoethyl)sulfanyl]methyl}sulfanyl)acetate,"InChI=1S/C13H24O4S2/c1-3-5-7-16-12(14)9-18-11-19-10-13(15)17-8-6-4-2/h3-11H2,1-2H3",QCWRDNFBMVSDEY-UHFFFAOYSA-N,CCCCOC(=O)CSCSCC(=O)OCCCC,-4.34307785820,0.00000000000,1,G1,308.46500,3.09690,81.51700,19,6,0,6,12,112,0,0,0,0,52.60,123.91491111042,3.29301947434,222.79771590833
A-1714,methyl 1-methyl-4-(propan-2-yl)bicyclo[2.2.2]oct-5-ene-2-carboxylate,"InChI=1S/C14H22O2/c1-10(2)14-7-5-13(3,6-8-14)11(9-14)12(15)16-4/h5,7,10-11H,6,8-9H2,1-4H3",NXAJZPARDMDLKH-UHFFFAOYSA-N,COC(=O)C1CC2(CCC1(C)C=C2)C(C)C,-4.20086612550,0.00000000000,1,G1,222.32800,3.17800,63.87500,16,2,0,2,2,90,0,1,3,3,26.30,98.05730050529,2.33535599491,331.62704296885
A-1715,methylcyclohexane,"InChI=1S/C7H14/c1-7-5-3-2-4-6-7/h7H,2-6H2,1H3",UAEPNZWRGJTJPN-UHFFFAOYSA-N,CC1CCCCC1,-3.84593480130,0.02896740065,2,G3,98.18900,2.58660,32.24900,7,0,0,0,0,42,0,1,1,1,0.00,45.92307256068,2.12291794996,42.00000000000
A-1716,2-phenylpropane-2-peroxol,"InChI=1S/C9H12O2/c1-9(2,11-10)8-6-4-3-5-7-8/h3-7,10H,1-2H3",YQHLDYVWEZKEOX-UHFFFAOYSA-N,CC(C)(OO)c1ccccc1,-1.03937987760,0.00000000000,1,G1,152.19300,2.41130,43.18180,11,2,1,2,2,60,1,0,0,1,29.46,66.36330376013,2.92844453139,216.26415929371
A-1718,7-oxabicyclo[4.1.0]heptan-3-ylmethyl 7-oxabicyclo[4.1.0]heptane-3-carboxylate,"InChI=1S/C14H20O4/c15-14(9-2-4-11-13(6-9)18-11)16-7-8-1-3-10-12(5-8)17-10/h8-13H,1-7H2",YXALYBMHAYZKAP-UHFFFAOYSA-N,O=C(OCC1CCC2OC2C1)C3CCC4OC4C3,-1.26048469020,0.00000000000,1,G1,252.31000,1.66460,62.96300,18,4,0,4,3,100,0,4,4,4,51.36,106.96233168943,1.22530137204,355.70315432218
A-1720,dimethyl carbonate,InChI=1S/C3H6O3/c1-5-3(4)6-2/h1-2H3,IEJIGPNLZYLLBP-UHFFFAOYSA-N,COC(=O)OC,0.18526035140,0.04015783425,2,G3,90.07800,0.39920,19.41400,6,3,0,3,0,36,0,0,0,0,35.53,35.85774781568,2.98816088213,44.00000000000
A-1723,cyclohexyl 2-methylprop-2-enoate,"InChI=1S/C10H16O2/c1-8(2)10(11)12-9-6-4-3-5-7-9/h9H,1,3-7H2,2H3",OIWOHHBRDFKZNC-UHFFFAOYSA-N,CC(=C)C(=O)OC1CCCCC1,-3.08856482260,0.00675123520,2,G3,168.23600,2.43840,47.77900,12,2,0,2,2,68,0,1,1,1,26.30,73.60336320124,2.29100933475,178.27760081649
A-1726,2-phenylethyl propanoate,"InChI=1S/C11H14O2/c1-2-11(12)13-9-8-10-6-4-3-5-7-10/h3-7H,2,8-9H2,1H3",HVGZQCSMLUDISR-UHFFFAOYSA-N,CCC(=O)OCCc1ccccc1,-3.11744433540,0.00000000000,1,G1,178.23100,2.18230,51.39600,13,2,0,2,4,70,1,0,0,1,26.30,78.53118102103,2.24137654317,254.05260581187
A-1727,benzyl butanoate,"InChI=1S/C11H14O2/c1-2-6-11(12)13-9-10-7-4-3-5-8-10/h3-5,7-8H,2,6,9H2,1H3",VONGZNXBKCOUHB-UHFFFAOYSA-N,CCCC(=O)OCc1ccccc1,-3.11744433540,0.15834354920,2,G3,178.23100,2.52990,51.14600,13,2,0,2,4,70,1,0,0,1,26.30,78.53118102103,2.31004282288,254.05260581187
A-1728,2-amino-5-acetamidobenzene-1-sulfonic acid,"InChI=1S/C8H10N2O4S/c1-5(11)10-6-2-3-7(9)8(4-6)15(12,13)14/h2-4H,9H2,1H3,(H,10,11)(H,12,13,14)",PHRVJZNHPVJYOM-UHFFFAOYSA-N,CC(=O)Nc1ccc(N)c(c1)[S](O)(=O)=O,-1.23185643930,0.00000000000,1,G1,230.24500,0.47390,54.97270,15,4,3,7,2,82,1,0,0,1,109.49,86.84119833900,3.23150219350,495.36317528104
A-1729,(aminooxy)sulfonic acid,"InChI=1S/H3NO4S/c1-5-6(2,3)4/h1H2,(H,2,3,4)",DQPBABKTKYNPMH-UHFFFAOYSA-N,NO[S](O)(=O)=O,0.07528271950,0.00000000000,1,G1,113.09400,-1.32050,16.82100,6,4,2,6,1,38,0,0,0,0,89.62,34.61942322553,3.85062163898,109.50977500433
A-1730,(3Z)-hex-3-en-1-yl methyl carbonate,"InChI=1S/C8H14O3/c1-3-4-5-6-7-11-8(9)10-2/h4-5H,3,6-7H2,1-2H3/b5-4+",BLOXMGXSDAAJGX-SNAWJCMRSA-N,CC/C=C/CCOC(=O)OC,-3.06983064770,0.00000000000,1,G1,158.19700,2.12570,42.40500,11,3,0,3,4,64,0,0,0,0,35.53,66.99285535548,3.13878485958,129.29886030285
A-1734,bicyclo[2.2.1]hept-2-ene,"InChI=1S/C7H10/c1-2-7-4-3-6(1)5-7/h1-2,6-7H,3-5H2",JFNLZVQOOSMTJK-UHFFFAOYSA-N,C1CC2CC1C=C2,-2.84772120540,0.00000000000,1,G1,94.15700,1.97250,29.97100,7,0,0,0,0,38,0,1,2,2,0.00,44.22763837497,2.27120030451,90.60593781761
A-1735,"2,4-dimethyl-1-nitrobenzene","InChI=1S/C8H9NO2/c1-6-3-4-8(9(10)11)7(2)5-6/h3-5H,1-2H3",BBUPBICWUURTNP-UHFFFAOYSA-N,Cc1ccc(c(C)c1)[N+]([O-])=O,-3.05559960740,0.00000000000,1,G1,151.16500,2.21164,42.57040,11,2,0,3,1,58,1,0,0,1,43.14,64.81426307079,3.19606966213,294.14357423079
A-1736,"2-(1,3-benzothiazol-2-ylsulfanyl)acetic acid","InChI=1S/C9H7NO2S2/c11-8(12)5-13-9-10-6-3-1-2-4-7(6)14-9/h1-4H,5H2,(H,11,12)",ZZUQWNYNSKJLPI-UHFFFAOYSA-N,OC(=O)CSc1sc2ccccc2n1,-3.22889798480,0.00000000000,1,G1,225.29400,2.47300,57.97980,14,4,1,5,3,72,2,0,0,2,50.19,88.78182900899,2.22469044679,433.53482316385
A-1740,3-(4-tert-butylphenyl)propanal,"InChI=1S/C13H18O/c1-13(2,3)12-8-6-11(7-9-12)5-4-10-14/h6-10H,4-5H2,1-3H3",FZJUFJKVIYFBSY-UHFFFAOYSA-N,CC(C)(C)c1ccc(CCC=O)cc1,-3.15883290570,0.00000000000,1,G1,190.28600,3.11560,59.52700,14,1,0,1,3,76,1,0,0,1,17.07,86.14752002032,2.73349710398,290.00675601893
A-1741,"3,5-dinitrobenzoic acid","InChI=1S/C7H4N2O6/c10-7(11)4-1-5(8(12)13)3-6(2-4)9(14)15/h1-3H,(H,10,11)",VYWYYJYRVSBHJQ-UHFFFAOYSA-N,OC(=O)c1cc(cc(c1)[N+]([O-])=O)[N+]([O-])=O,-2.20764972340,0.00572486170,2,G3,212.11700,1.20120,46.71010,15,5,1,8,3,78,1,0,0,1,123.58,82.05805253113,3.38738007545,375.78652693973
A-1743,"N-(2,2,6,6-tetramethylpiperidin-4-yl)-N-{6-[N-(2,2,6,6-tetramethylpiperidin-4-yl)formamido]hexyl}formamide","InChI=1S/C26H50N4O2/c1-23(2)15-21(16-24(3,4)27-23)29(19-31)13-11-9-10-12-14-30(20-32)22-17-25(5,6)28-26(7,8)18-22/h19-22,27-28H,9-18H2,1-8H3",UONLDZHKYCFZRW-UHFFFAOYSA-N,CC1(C)CC(CC(C)(C)N1)N(CCCCCCN(C=O)C2CC(C)(C)NC(C)(C)C2)C=O,-1.53995576880,0.00000000000,1,G1,450.71200,4.08200,132.63940,32,4,2,6,11,186,0,2,2,2,64.68,196.79357748840,1.74330748210,543.31641756199
A-1744,aminothiourea,"InChI=1S/CH5N3S/c2-1(5)4-3/h3H2,(H3,2,4,5)",BRWIZMBXBAOCCF-UHFFFAOYSA-N,NNC(N)=S,-0.84576090680,0.05697167615,2,G3,91.13900,-1.30670,24.10850,5,2,3,4,0,30,0,0,0,0,64.07,35.29781087290,2.84737892309,42.15772188108
A-1746,"2-(heptan-3-yl)-1,3-dioxolane","InChI=1S/C10H20O2/c1-3-5-6-9(4-2)10-11-7-8-12-10/h9-10H,3-8H2,1-2H3",LQSZQAHPRJMRET-UHFFFAOYSA-N,CCCCC(CC)C1OCCO1,-3.11959686770,0.00000000000,1,G1,172.26800,2.57570,48.99800,12,2,0,2,5,72,0,1,1,1,18.46,75.24498936288,2.22340550104,108.40620687739
A-1747,2-methyl-2-[(2-methylbutan-2-yl)peroxy]butane,"InChI=1S/C10H22O2/c1-7-9(3,4)11-12-10(5,6)8-2/h7-8H2,1-6H3",JJRDRFZYKKFYMO-UHFFFAOYSA-N,CCC(C)(C)OOC(C)(C)CC,-4.10043533880,0.00000000000,1,G1,174.28400,3.31180,50.91000,12,2,0,2,5,74,0,0,0,0,18.46,76.18011583215,3.82091309136,111.80026905978
A-1748,"1-(2,6,6-trimethylcyclohex-1-en-1-yl)pent-1-en-3-one","InChI=1S/C14H22O/c1-5-12(15)8-9-13-11(2)7-6-10-14(13,3)4/h8-9H,5-7,10H2,1-4H3/b9-8+",LMWNGLDCJDIIBR-CMDGGOBGSA-N,CCC(=O)/C=C/C1=C(C)CCCC1(C)C,-4.18745547500,0.42077374465,2,G3,206.32900,4.04830,64.77000,15,1,0,1,3,84,0,0,1,1,17.07,93.25998339713,2.89776301675,305.30039002532
A-1749,"2,2,4-trimethyl-1-[(2-methylpropanoyl)oxy]pentan-3-yl 2-methylpropanoate","InChI=1S/C16H30O4/c1-10(2)13(20-15(18)12(5)6)16(7,8)9-19-14(17)11(3)4/h10-13H,9H2,1-8H3",OMVSWZDEEGIJJI-UHFFFAOYSA-N,CC(C)C(OC(=O)C(C)C)C(C)(C)COC(=O)C(C)C,-4.33313956900,0.00000000000,1,G1,286.41200,3.43560,79.13400,20,4,0,4,7,118,0,0,0,0,52.60,122.76351740288,4.79440813790,329.36857377541
A-1750,4-(propan-2-yl)cyclohexyl propanoate,"InChI=1S/C12H22O2/c1-4-12(13)14-11-7-5-10(6-8-11)9(2)3/h9-11H,4-8H2,1-3H3",FFEOEKMMMQFWBO-UHFFFAOYSA-N,CCC(=O)OC1CCC(CC1)C(C)C,-4.17348421360,0.00000000000,1,G1,198.30600,3.15440,56.96700,14,2,0,2,3,82,0,1,1,1,26.30,87.02285046221,2.25175502012,178.76075065686
A-1751,trimethoxy(octyl)silane,"InChI=1S/C11H26O3Si/c1-5-6-7-8-9-10-11-15(12-2,13-3)14-4/h5-11H2,1-4H3",NMEPHPOFYLLFTK-UHFFFAOYSA-N,CCCCCCCC[Si](OC)(OC)OC,-4.24612819930,0.00000000000,1,G1,234.41200,3.22500,64.96400,15,3,0,4,10,92,0,0,0,0,27.69,95.48028069242,3.53696839947,129.53006112046
A-1753,"3,6,9-triethyl-3,6,9-trimethyl-1,2,4,5,7,8-hexaoxonane","InChI=1S/C12H24O6/c1-7-10(4)13-15-11(5,8-2)17-18-12(6,9-3)16-14-10/h7-9H2,1-6H3",KVWLLOIEGKLBPA-UHFFFAOYSA-N,CCC1(C)OOC(C)(CC)OOC(C)(CC)OO1,-4.30485544380,0.00000000000,1,G1,264.31800,3.22320,62.59800,18,6,0,6,3,108,0,1,1,1,55.38,108.21694045692,2.88306591319,212.49926261034
A-1756,bis-O-(benzylidene)-D-glucitol,"InChI=1S/C20H20O6/c21-20-12-23-19(14-9-5-2-6-10-14)25-17(20)16-15(26-20)11-22-18(24-16)13-7-3-1-4-8-13/h1-10,15-19,21H,11-12H2/t15-,16+,17-,18?,19?,20+/m1/s1",DAZRYUTWPPBZOY-WUFCDUEQSA-N,O[C@]12COC(O[C@@H]1[C@H]3OC(OC[C@H]3O2)c4ccccc4)c5ccccc5,-4.43796265940,0.00000000000,1,G1,356.37400,2.30220,89.83880,26,6,1,6,2,136,2,3,3,5,66.38,150.75250067988,1.38123277953,753.41142767449
A-1759,"ethyl 5-oxo-1-phenyl-4,5-dihydro-1H-pyrazole-3-carboxylate","InChI=1S/C12H12N2O3/c1-2-17-12(16)10-8-11(15)14(13-10)9-6-4-3-5-7-9/h3-7H,2,8H2,1H3",WBFXQKNQVZMOSQ-UHFFFAOYSA-N,CCOC(=O)C1=NN(C(=O)C1)c2ccccc2,-3.25534544250,0.00000000000,1,G1,232.23900,1.34240,62.61300,17,4,0,5,3,88,1,0,1,2,58.97,98.67710625824,2.20352143470,467.89890220733
A-1762,oct-7-enal,"InChI=1S/C8H14O/c1-2-3-4-5-6-7-8-9/h2,8H,1,3-7H2",LIINGNMKNRSOGW-UHFFFAOYSA-N,C=CCCCCCC=O,-1.99725219260,0.00000000000,1,G1,126.19900,2.32180,39.34600,9,1,0,1,6,52,0,0,0,0,17.07,56.76576489647,2.73602287701,66.63682062300
A-1764,diphenylacetic acid,"InChI=1S/C14H12O2/c15-14(16)13(11-7-3-1-4-8-11)12-9-5-2-6-10-12/h1-10,13H,(H,15,16)",PYHXGXCGESYPCW-UHFFFAOYSA-N,OC(=O)C(c1ccccc1)c2ccccc2,-3.22303988560,0.00000000000,1,G1,212.24800,2.90310,62.36280,16,1,1,2,3,80,2,0,0,2,37.30,94.17413740659,2.43726517957,423.10871922773
A-1769,isopropyl chlorocarbonate,"InChI=1S/C4H7ClO2/c1-3(2)7-4(5)6/h3H,1-2H3",IVRIRQXJSNCSPQ-UHFFFAOYSA-N,CC(C)OC(Cl)=O,-0.98829112930,0.00000000000,1,G1,122.55100,1.77020,27.47000,7,2,0,3,1,42,0,0,0,0,26.30,47.41241092745,3.12600665239,70.09004635215
A-1770,sodium 2-hydroxybenzoate,"InChI=1S/C7H6O3.Na/c8-6-4-2-1-3-5(6)7(9)10;/h1-4,8H,(H,9,10);/q;+1/p-1",ABBQHOQBGMUPJH-UHFFFAOYSA-M,[Na+].Oc1ccccc1C([O-])=O,-0.10749216940,0.45240475724,4,G5,160.10400,-3.24030,32.43730,11,3,1,4,1,52,1,0,0,1,60.36,85.95973446104,0.00000100000,259.61752828045
A-1772,1-phenylvinyl acetate,"InChI=1S/C10H10O2/c1-8(12-9(2)11)10-6-4-3-5-7-10/h3-7H,1H2,2H3",HWCUCNKPBMGSSC-UHFFFAOYSA-N,CC(=O)OC(=C)c1ccccc1,-2.11359538780,0.00000000000,1,G1,162.18800,2.22040,47.24200,12,2,0,2,2,62,1,0,0,1,26.30,71.47663587445,2.72507818649,287.96670602156
A-1773,"ethyl 2-(2,4-dimethyl-1,3-dioxolan-2-yl)acetate","InChI=1S/C9H16O4/c1-4-11-8(10)5-9(3)12-6-7(2)13-9/h7H,4-6H2,1-3H3",GSIXJEIRJVOUFB-UHFFFAOYSA-N,CCOC(=O)CC1(C)OCC(C)O1,-2.17988722330,0.00000000000,1,G1,188.22300,1.09110,46.15400,13,4,0,4,3,76,0,1,1,1,44.76,78.15511457804,2.38703754893,192.05372307956
A-1775,"1,3-dichlorobenzene",InChI=1S/C6H4Cl2/c7-5-2-1-3-6(8)4-5/h1-4H,ZPQOPVIELGIULI-UHFFFAOYSA-N,Clc1cccc(Cl)c1,-3.07215980070,0.03373742746,3,G5,147.00400,2.99340,36.46200,8,0,0,2,0,42,1,0,0,1,0.00,58.03793557326,3.07766043797,166.38833891467
A-1776,2-(2-methylphenyl)ethanol,"InChI=1S/C9H12O/c1-8-4-2-3-5-9(8)6-7-10/h2-5,10H,6-7H2,1H3",RUGISKODRCWQNE-UHFFFAOYSA-N,Cc1ccccc1CCO,-1.04287801100,0.00000000000,1,G1,136.19400,1.52982,41.96880,10,1,1,1,2,54,1,0,0,1,20.23,61.32046321488,2.81118091719,205.63816918119
A-1779,"4-chlorobenzene-1,3-diol","InChI=1S/C6H5ClO2/c7-5-2-1-4(8)3-6(5)9/h1-3,8-9H",JQVAPEJNIZULEK-UHFFFAOYSA-N,Oc1ccc(Cl)c(O)c1,-1.07056764300,0.93616427858,3,G4,144.55700,1.75120,34.78160,9,2,2,3,0,48,1,0,0,1,40.46,57.32313685077,3.17167803044,222.29788705001
A-1780,"6,6-dimethyl-2-methylidenebicyclo[3.1.1]heptan-3-ol","InChI=1S/C10H16O/c1-6-8-4-7(5-9(6)11)10(8,2)3/h7-9,11H,1,4-5H2,2-3H3",LCYXQUJDODZYIJ-UHFFFAOYSA-N,CC1(C)C2CC(O)C(=C)C1C2,-2.09612479000,0.00000000000,1,G1,152.23700,1.96950,45.14180,11,1,1,1,0,62,0,3,3,3,20.23,68.11669847035,2.23320467237,204.91831683476
A-1781,4-(propan-2-yl)cyclohexan-1-ol,"InChI=1S/C9H18O/c1-7(2)8-3-5-9(10)6-4-8/h7-10H,3-6H2,1-2H3",DKKRDMLKVSKFMJ-UHFFFAOYSA-N,CC(C)C1CCC(O)CC1,-2.06809427510,0.00000000000,1,G1,142.24200,2.19350,42.80280,10,1,1,1,1,60,0,1,1,1,20.23,63.44719054167,2.25990259622,90.90138860756
A-1782,"1,2-dichloro-4-nitrobenzene",InChI=1S/C6H3Cl2NO2/c7-5-2-1-4(9(10)11)3-6(5)8/h1-3H,NTBYINQTYWZXLH-UHFFFAOYSA-N,[O-][N+](=O)c1ccc(Cl)c(Cl)c1,-3.20051812030,0.00000000000,1,G1,192.00100,2.90160,43.11640,11,2,0,5,1,58,1,0,0,1,43.14,72.69091129576,3.15154966831,300.63379922646
A-1783,"disodium 2,5-dichloro-4-{3-methyl-5-oxo-4-[(E)-2-(4-sulfonatophenyl)diazen-1-yl]-4,5-dihydro-1H-pyrazol-1-yl}benzene-1-sulfonate","InChI=1S/C16H12Cl2N4O7S2.2Na/c1-8-15(20-19-9-2-4-10(5-3-9)30(24,25)26)16(23)22(21-8)13-6-12(18)14(7-11(13)17)31(27,28)29;;/h2-7,15H,1H3,(H,24,25,26)(H,27,28,29);;/q;2*+1/p-2",FTZLWXQKVFFWLY-UHFFFAOYSA-L,[Na+].[Na+].CC1=NN(C(=O)C1N=Nc2ccc(cc2)[S]([O-])(=O)=O)c3cc(Cl)c(cc3Cl)[S]([O-])(=O)=O,-0.66054277030,0.00000000000,1,G1,551.29700,-3.31540,107.72940,33,10,0,17,5,164,2,0,1,3,171.79,242.86663046972,0.00000272250,1351.65194878416
A-1784,ammonium iron(III) citrate,"InChI=1S/C6H8O7.Fe.H3N/c7-3(8)1-6(13,5(11)12)2-4(9)10;;/h13H,1-2H2,(H,7,8)(H,9,10)(H,11,12);;1H3/q;+3;/p-3",FRHBOQMZUOWXQL-UHFFFAOYSA-K,N.[Fe+3].OC(CC([O-])=O)(CC([O-])=O)C([O-])=O,0.66092139700,0.00000000000,1,G1,261.97500,-5.09310,34.22690,15,8,2,9,5,87,0,0,0,0,175.62,94.95683354490,-0.00000072000,237.86496481873
A-1785,disodium 2-amino-5-[(4-sulphonatophenyl)azo]benzenesulphonate,"InChI=1S/C12H11N3O6S2.2Na/c13-11-6-3-9(7-12(11)23(19,20)21)15-14-8-1-4-10(5-2-8)22(16,17)18;;/h1-7H,13H2,(H,16,17,18)(H,19,20,21);;/q;2*+1/p-2",FPVGTPBMTFTMRT-UHFFFAOYSA-L,[Na+].[Na+].Nc1ccc(cc1[S]([O-])(=O)=O)N=Nc2ccc(cc2)[S]([O-])(=O)=O,-0.52432362540,0.00000000000,1,G1,401.33300,-4.49960,77.39880,25,9,1,13,4,122,2,0,0,2,165.14,188.35923713257,0.00000288000,976.41013756588
A-1787,"Glycerol, propoxylated, esters with acrylic acid","InChI=1S/C21H32O9/c1-4-19(22)28-13-7-10-25-16-18(27-12-9-15-30-21(24)6-3)17-26-11-8-14-29-20(23)5-2/h4-6,18H,1-3,7-17H2",DMQYPVOQAARSNF-UHFFFAOYSA-N,C=CC(=O)OCCCOCC(COCCCOC(=O)C=C)OCCCOC(=O)C=C,-2.55274728210,0.00000000000,1,G1,428.47800,1.76270,108.69700,30,9,0,9,20,170,0,0,0,0,106.59,177.13512189638,4.04543452832,498.57007903462
A-1789,N-{4-[(2-hydroxyethyl)sulfonyl]phenyl}acetamide,"InChI=1S/C10H13NO4S/c1-8(13)11-9-2-4-10(5-3-9)16(14,15)7-6-12/h2-5,12H,6-7H2,1H3,(H,11,13)",XIICKRYAUAVEQS-UHFFFAOYSA-N,CC(=O)Nc1ccc(cc1)[S](=O)(=O)CCO,-2.30693230170,0.00000000000,1,G1,243.28400,0.41100,59.88430,16,4,2,6,4,88,1,0,0,1,83.47,94.02218799472,2.90546966640,464.09732610370
A-1790,acetylene,InChI=1S/C2H2/c1-2/h1-2H,HSFWRNGVRCDJHI-UHFFFAOYSA-N,C#C,-1.33642637660,0.81321318830,2,G2,26.03800,0.24940,9.89000,2,0,0,0,0,10,0,0,0,0,0.00,14.10341853409,3.00000000000,4.75488750216
A-1791,propiophenone,"InChI=1S/C9H10O/c1-2-9(10)8-6-4-3-5-7-8/h3-7H,2H2,1H3",KRIOVPPHQSLHCZ-UHFFFAOYSA-N,CCC(=O)c1ccccc1,-2.04850006810,0.11090003405,2,G3,134.17800,2.27930,41.06350,10,1,0,1,2,52,1,0,0,1,17.07,60.68775156273,2.85262792882,213.42969243757
A-1792,4-tert-butylbenzaldehyde,"InChI=1S/C11H14O/c1-11(2,3)10-6-4-9(8-12)5-7-10/h4-8H,1-3H3",OTXINXDGSUFPNU-UHFFFAOYSA-N,CC(C)(C)c1ccc(C=O)cc1,-3.13095527620,0.05121234973,3,G5,162.23200,2.79660,50.52950,12,1,0,1,1,64,1,0,0,1,17.07,73.41763579152,2.99883701072,264.05074112726
A-1793,6-aminonaphthalene-2-sulfonic acid,"InChI=1S/C10H9NO3S/c11-9-3-1-8-6-10(15(12,13)14)4-2-7(8)5-9/h1-6H,11H2,(H,12,13,14)",SEMRCUIXRUXGJX-UHFFFAOYSA-N,Nc1ccc2cc(ccc2c1)[S](O)(=O)=O,-3.26961605750,0.00000000000,1,G1,223.25300,1.66870,58.17500,15,3,2,5,1,78,2,0,0,2,80.39,87.08159435829,2.72888166452,619.60014755309
A-1794,"1-(2,6,6-trimethylcyclohex-2-en-1-yl)pentan-3-one; prop-2-yn-1-ol","InChI=1S/C14H24O.C3H4O/c1-5-12(15)8-9-13-11(2)7-6-10-14(13,3)4;1-2-3-4/h7,13H,5-6,8-10H2,1-4H3;1,4H,3H2",BKHCAESJENSNLE-UHFFFAOYSA-N,CCC(=O)CCC1C(=CCCC1(C)C)C.OCC#C,-4.32190568850,0.00000000000,1,G1,264.40900,3.74010,80.71280,19,2,1,2,4,108,0,0,1,1,37.30,117.84370307009,0.00000071100,344.76379063599
A-1795,2-ethylhexyl nitrate,"InChI=1S/C8H17NO3/c1-3-5-6-8(4-2)7-12-9(10)11/h8H,3-7H2,1-2H3",NKRVGWFEFKCZAP-UHFFFAOYSA-N,CCCCC(CC)CO[N+]([O-])=O,-4.14669349110,0.00000000000,1,G1,175.22800,2.41110,46.25240,12,3,0,4,7,72,0,0,0,0,52.37,73.01440528009,3.45346633834,127.47138037475
A-1796,"3-ethoxy-1,1,5-trimethylcyclohexane","InChI=1S/C11H22O/c1-5-12-10-6-9(2)7-11(3,4)8-10/h9-10H,5-8H2,1-4H3",JVBNHJDWWBSWLE-UHFFFAOYSA-N,CCOC1CC(C)CC(C)(C)C1,-4.13429443410,0.00000000000,1,G1,170.29600,3.23770,52.21000,12,1,0,1,2,72,0,1,1,1,9.23,76.49638624777,2.45652973566,139.93953880616
A-1797,isooctyl acrylate,"InChI=1S/C11H20O2/c1-4-11(12)13-9-7-5-6-8-10(2)3/h4,10H,1,5-9H2,2-3H3",DXPPIEDUBFUSEZ-UHFFFAOYSA-N,CC(C)CCCCCOC(=O)C=C,-4.17065546650,0.00000000000,1,G1,184.27900,2.93200,54.46200,13,2,0,2,7,76,0,0,0,0,26.30,80.97413646916,3.07985908024,150.16926858275
A-1798,"2-(cyclohexylsulfanyl)-2,3-dihydro-1H-isoindole-1,3-dione","InChI=1S/C14H15NO2S/c16-13-11-8-4-5-9-12(11)14(17)15(13)18-10-6-2-1-3-7-10/h4-5,8-10H,1-3,6-7H2",UEZWYKZHXASYJN-UHFFFAOYSA-N,O=C1N(SC2CCCCC2)C(=O)c3ccccc13,-4.32379417230,0.00000000000,1,G1,261.34600,3.26350,71.40600,18,3,0,4,2,94,1,1,2,3,37.38,110.68064313390,1.78867502993,459.32228816972
A-1799,"N-cyclohexyl-3-[(4-{[3-(cyclohexylsulfamoyl)-2,4,6-trimethylphenyl]amino}-9,10-dioxo-9,10-dihydroanthracen-1-yl)amino]-2,4,6-trimethylbenzene-1-sulfonamide","InChI=1S/C44H52N4O6S2/c1-25-23-27(3)43(55(51,52)47-31-15-9-7-10-16-31)29(5)39(25)45-35-21-22-36(38-37(35)41(49)33-19-13-14-20-34(33)42(38)50)46-40-26(2)24-28(4)44(30(40)6)56(53,54)48-32-17-11-8-12-18-32/h13-14,19-24,31-32,45-48H,7-12,15-18H2,1-6H3",AYYCRXDSCYPSRP-UHFFFAOYSA-N,Cc1cc(C)c(c(C)c1Nc2ccc(Nc3c(C)cc(C)c(c3C)[S](=O)(=O)NC4CCCCC4)c5C(=O)c6ccccc6C(=O)c25)[S](=O)(=O)NC7CCCCC7,-4.81870346510,0.00000000000,1,G1,797.05600,9.02172,222.00940,56,8,4,12,10,296,4,2,3,7,150.54,330.92807928438,1.32262200256,2309.84966355417
A-1800,"(4-tert-butyl-3-hydroxy-2,6-dimethylphenyl)acetonitrile","InChI=1S/C14H19NO/c1-9-8-12(14(3,4)5)13(16)10(2)11(9)6-7-15/h8,16H,6H2,1-5H3",OUKJZHRCKQJXSU-UHFFFAOYSA-N,Cc1cc(c(O)c(C)c1CC#N)C(C)(C)C,-4.25790246270,0.00000000000,1,G1,217.31200,3.37262,65.59780,16,2,1,2,1,86,1,0,0,1,44.02,97.53775346833,3.46580655084,447.27386271096
A-1801,cadmium(2+) ion sulfanediide,InChI=1S/Cd.S,CJOBVZJTOIVNNF-UHFFFAOYSA-N,S=[Cd],-4.08062348100,0.00000000000,1,G1,144.47900,0.64570,7.59100,2,1,0,2,0,8,0,0,0,0,0.00,32.37979012814,2.00000000000,2.00000000000
A-1802,"diethyl (3,5-di-tert-butyl-4-hydroxybenzyl)phosphonate","InChI=1S/C19H33O4P/c1-9-22-24(21,23-10-2)13-14-11-15(18(3,4)5)17(20)16(12-14)19(6,7)8/h11-12,20H,9-10,13H2,1-8H3",GJDRKHHGPHLVNI-UHFFFAOYSA-N,CCO[P](=O)(Cc1cc(c(O)c(c1)C(C)(C)C)C(C)(C)C)OCC,-4.47280884420,0.00000000000,1,G1,356.44300,5.75330,100.06930,24,4,1,5,6,138,1,0,0,1,55.76,146.65991523421,3.46133326967,563.76840712481
A-1803,diiron trimolybdenum dodecaoxide,InChI=1S/2Fe.2Mo.9O/q2*+3;;;9*-2,NGJMAOMHPSCKKA-UHFFFAOYSA-N,[O--].[O--].[O--].[O--].[O--].[O--].[O--].[O--].[O--].[Fe+3].[Fe+3].[Mo].[Mo],-4.57167098950,0.00000000000,1,G1,447.56100,-1.07920,6.17850,13,0,0,13,0,94,0,0,0,0,256.50,124.66267534364,0.00000000000,15.57639132285