ID,Name,InChI,InChIKey,SMILES,Solubility,SD,Ocurrences,Group,MolWt,MolLogP,MolMR,HeavyAtomCount,NumHAcceptors,NumHDonors,NumHeteroatoms,NumRotatableBonds,NumValenceElectrons,NumAromaticRings,NumSaturatedRings,NumAliphaticRings,RingCount,TPSA,LabuteASA,BalabanJ,BertzCT
A-2184,"5,7-dihydroxy-2-(3-hydroxy-4-methoxyphenyl)-4H-chromen-4-one","InChI=1S/C16H12O6/c1-21-13-3-2-8(4-10(13)18)14-7-12(20)16-11(19)5-9(17)6-15(16)22-14/h2-7,17-19H,1H3",MBNGWHIJMBWFHU-UHFFFAOYSA-N,COc1ccc(cc1O)C2=CC(=O)c3c(O)cc(O)cc3O2,-6.19875255760,0.00000000000,1,G1,300.26600,2.58540,79.46640,22,6,3,6,2,112,3,0,0,3,100.13,123.99768938184,2.24139156559,925.80272855979
A-2186,"tris(2-[bis(2-hydroxyethyl)amino]ethan-1-ol); 6-({bis[(5-carboxypentyl)amino]-1,3,5-triazin-2-yl}amino)hexanoic acid","InChI=1S/C21H36N6O6.3C6H15NO3/c28-16(29)10-4-1-7-13-22-19-25-20(23-14-8-2-5-11-17(30)31)27-21(26-19)24-15-9-3-6-12-18(32)33;3*8-4-1-7(2-5-9)3-6-10/h1-15H2,(H,28,29)(H,30,31)(H,32,33)(H3,22,23,24,25,26,27);3*8-10H,1-6H2",CAQVCPKFGUCELS-UHFFFAOYSA-N,OCCN(CCO)CCO.OCCN(CCO)CCO.OCCN(CCO)CCO.OC(=O)CCCCCNc1nc(NCCCCCC(O)=O)nc(NCCCCCC(O)=O)n1,-6.68320113370,0.00000000000,1,G1,916.12500,-2.16180,236.69970,63,21,15,24,39,372,1,0,0,1,378.45,371.19021552912,-0.00000096566,993.21592925087
A-2187,"3,3,4,4,5,5,6,6,7,7,8,8,8-tridecafluorooctyl prop-2-enoate","InChI=1S/C11H7F13O2/c1-2-5(25)26-4-3-6(12,13)7(14,15)8(16,17)9(18,19)10(20,21)11(22,23)24/h2H,1,3-4H2",VPKQPPJQTZJZDB-UHFFFAOYSA-N,FC(F)(F)C(F)(F)C(F)(F)C(F)(F)C(F)(F)C(F)(F)CCOC(=O)C=C,-6.35415933410,0.00000000000,1,G1,418.14900,4.84450,56.56300,26,2,0,15,8,154,0,0,0,0,26.30,135.12609670720,5.84686026664,534.69859359573
A-2188,bis(8-methylnonyl) phenyl phosphite,"InChI=1S/C26H47O3P/c1-24(2)18-12-7-5-9-16-22-27-30(29-26-20-14-11-15-21-26)28-23-17-10-6-8-13-19-25(3)4/h11,14-15,20-21,24-25H,5-10,12-13,16-19,22-23H2,1-4H3",SXXILWLQSQDLDL-UHFFFAOYSA-N,CC(C)CCCCCCCOP(OCCCCCCCC(C)C)Oc1ccccc1,-6.38202991420,0.32178056405,2,G3,438.63300,9.31870,130.97400,30,3,0,4,20,174,1,0,0,1,27.69,187.83057725120,2.16787074639,454.42686911132
A-2190,oxotitanium; sulfuric acid,"InChI=1S/H2O4S.O.Ti/c1-5(2,3)4;;/h(H2,1,2,3,4);;",ZYPJORZNHDXKSD-UHFFFAOYSA-N,O[S](O)(=O)=O.O=[Ti],-5.96139427750,0.10222399542,3,G5,161.94500,-0.77410,14.86390,7,3,2,7,0,42,0,0,0,0,91.67,52.02806713260,0.00000000000,102.04184397997
A-2193,"2-methyl-9,10-dihydroanthracene-9,10-dione","InChI=1S/C15H10O2/c1-9-6-7-12-13(8-9)15(17)11-5-3-2-4-10(11)14(12)16/h2-8H,1H3",NJWGQARXZDRHCD-UHFFFAOYSA-N,Cc1ccc2C(=O)c3ccccc3C(=O)c2c1,-6.11714624850,0.00000000000,1,G1,222.24300,2.77042,64.48600,17,2,0,2,0,82,2,0,1,3,34.14,98.90053671531,2.33049093986,653.72143775538
A-2200,"1-N,4-N-diphenylbenzene-1,4-diamine","InChI=1S/C18H16N2/c1-3-7-15(8-4-1)19-17-11-13-18(14-12-17)20-16-9-5-2-6-10-16/h1-14,19-20H",UTGQNNCQYDRXCH-UHFFFAOYSA-N,N(c1ccccc1)c2ccc(Nc3ccccc3)cc2,-6.23944964150,0.00000000000,1,G1,260.34000,5.17380,85.89140,20,2,2,2,4,98,3,0,0,3,24.06,118.64531589884,1.68628439952,585.51804995267
A-2201,"2,6-dimethyl naphthalene-2,6-dicarboxylate","InChI=1S/C14H12O4/c1-17-13(15)11-5-3-10-8-12(14(16)18-2)6-4-9(10)7-11/h3-8H,1-2H3",GYUVMLBYMPKZAZ-UHFFFAOYSA-N,COC(=O)c1ccc2cc(ccc2c1)C(=O)OC,-6.21173620100,0.04486571420,2,G3,244.24600,2.41300,66.62700,18,4,0,4,2,92,2,0,0,2,52.60,104.12297076792,2.48058883058,560.97014300315
A-2205,"dialuminium tris[2-(2,4,5,7-tetrabromo-6-oxido-3-oxoxanthen-9-yl)benzoate]","InChI=1S/3C20H8Br4O5.2Al/c3*21-11-5-9-13(7-3-1-2-4-8(7)20(27)28)10-6-12(22)17(26)15(24)19(10)29-18(9)14(23)16(11)25;;/h3*1-6,25H,(H,27,28);;/q;;;2*+3/p-6",JNDCLPVZJSPREA-UHFFFAOYSA-H,[Al+3].[Al+3].[O-]C(=O)c1ccccc1C2=C3C=C(Br)C(=O)C(=C3Oc4c(Br)c([O-])c(Br)cc24)Br.[O-]C(=O)c5ccccc5C6=C7C=C(Br)C(=O)C(=C7Oc8c(Br)c([O-])c(Br)cc68)Br.[O-]C(=O)c9ccccc9C%10=C%11C=C(Br)C(=O)C(=C%11Oc%12c(Br)c([O-])c(Br)cc%10%12)Br,-7.14356270190,0.00000000000,1,G1,1991.60100,14.39410,368.86350,89,15,0,29,6,438,6,0,6,12,280.20,621.28329649101,0.00000017067,4591.55683310179
A-2206,"1,4-dihydroxy-9,10-dihydroanthracene-9,10-dione","InChI=1S/C14H8O4/c15-9-5-6-10(16)12-11(9)13(17)7-3-1-2-4-8(7)14(12)18/h1-6,15-16H",GUEIZVNYDFNHJU-UHFFFAOYSA-N,Oc1ccc(O)c2C(=O)c3ccccc3C(=O)c12,-6.25349351670,0.08539166074,6,G5,240.21400,1.87320,63.07860,18,4,2,4,0,88,2,0,1,3,74.60,102.12406210530,2.40941506695,640.93533396871
A-2210,"1,2-bis(propan-2-yl)naphthalene","InChI=1S/C16H20/c1-11(2)14-10-9-13-7-5-6-8-15(13)16(14)12(3)4/h5-12H,1-4H3",IAUKWGFWINVWKS-UHFFFAOYSA-N,CC(C)c1ccc2ccccc2c1C(C)C,-6.23011361880,0.04776079603,3,G5,212.33600,5.08660,72.12600,16,0,0,0,2,84,2,0,0,2,0.00,98.30272033761,2.78928972521,492.36451174350
A-2214,dioctylstannanone,"InChI=1S/2C8H17.O.Sn/c2*1-3-5-7-8-6-4-2;;/h2*1,3-8H2,2H3;;",LQRUPWUPINJLMU-UHFFFAOYSA-N,CCCCCCCC[Sn](=O)CCCCCCCC,-6.47851599330,0.44866882905,2,G3,361.15800,6.12940,82.80650,18,1,0,2,14,108,0,0,0,0,17.07,122.24357046269,3.12462133256,161.93577382146
A-2217,"4-{4-[4-(4-methoxyphenyl)piperazin-1-yl]phenyl}-4,5-dihydro-1H-1,2,4-triazol-5-one","InChI=1S/C19H21N5O2/c1-26-18-8-6-16(7-9-18)23-12-10-22(11-13-23)15-2-4-17(5-3-15)24-14-20-21-19(24)25/h2-9,14H,10-13H2,1H3,(H,21,25)",SEHQVBVJJRRRSG-UHFFFAOYSA-N,COc1ccc(cc1)N2CCN(CC2)c3ccc(cc3)N4C=NNC4=O,-6.48890926460,0.00000000000,1,G1,351.41000,1.89580,101.60470,26,6,1,7,4,134,3,1,1,4,66.39,150.98608705794,1.41014448514,906.10746806812
A-2218,"1-(4-chlorophenyl)-3-(3,4-dichlorophenyl)urea","InChI=1S/C13H9Cl3N2O/c14-8-1-3-9(4-2-8)17-13(19)18-10-5-6-11(15)12(16)7-10/h1-7H,(H2,17,18,19)",ICUTUKXCWQYESQ-UHFFFAOYSA-N,Clc1ccc(NC(=O)Nc2ccc(Cl)c(Cl)c2)cc1,-6.45772641980,0.52069634260,2,G2,315.58700,5.29080,80.55540,19,1,2,6,2,98,2,0,0,2,41.13,125.02448458786,2.00642490163,599.33736651511
A-2221,"1,1-bis(tert-butylperoxy)-3,3,5-trimethylcyclohexane","InChI=1S/C17H34O4/c1-13-10-16(8,9)12-17(11-13,20-18-14(2,3)4)21-19-15(5,6)7/h13H,10-12H2,1-9H3",NALFRYPTRXKZPN-UHFFFAOYSA-N,CC1CC(C)(C)CC(C1)(OOC(C)(C)C)OOC(C)(C)C,-6.48066076840,0.46030784065,4,G5,302.45500,5.02230,83.37300,21,4,0,4,4,126,0,1,1,1,36.92,129.88526525415,2.87240301325,317.67972077347
A-2225,"(1R,4E,9S)-4,11,11-trimethyl-8-methylidenebicyclo[7.2.0]undec-4-ene","InChI=1S/C15H24/c1-11-6-5-7-12(2)13-10-15(3,4)14(13)9-8-11/h6,13-14H,2,5,7-10H2,1,3-4H3/b11-6+/t13-,14-/m1/s1",NPNUFJAVOOONJE-GFUGXAQUSA-N,C\C1=C/CCC(=C)[C@H]2CC(C)(C)[C@@H]2CC1,-6.33726166490,0.01432259075,2,G3,204.35700,4.72520,66.74300,15,0,0,0,0,84,0,1,2,2,0.00,94.45757225796,2.11962312638,293.16017124399
A-2229,"1,1'-(2,3-dimethylbutane-2,3-diyl)dibenzene","InChI=1S/C18H22/c1-17(2,15-11-7-5-8-12-15)18(3,4)16-13-9-6-10-14-16/h5-14H,1-4H3",HGTUJZTUQFXBIH-UHFFFAOYSA-N,CC(C)(c1ccccc1)C(C)(C)c2ccccc2,-6.47416889720,0.00000000000,1,G1,238.37400,4.94200,78.93600,18,0,0,0,3,94,2,0,0,2,0.00,110.67815001194,2.46653621271,442.57622409137
A-2231,2-(benzyloxy)naphthalene,"InChI=1S/C17H14O/c1-2-6-14(7-3-1)13-18-17-11-10-15-8-4-5-9-16(15)12-17/h1-12H,13H2",WLTCCDHHWYAMCG-UHFFFAOYSA-N,C(Oc1ccc2ccccc2c1)c3ccccc3,-6.47767397870,0.23036541930,2,G3,234.29800,4.41880,74.72200,18,1,0,1,3,88,3,0,0,3,9.23,106.64864920120,1.78737619501,643.83556047055
A-2232,"6-Bromo-3-methyl-3H-dibenz[f,ij]isoquinoline-2,7-dione","InChI=1S/C17H10BrNO2/c1-19-13-7-6-12(18)16-15(13)11(8-14(19)20)9-4-2-3-5-10(9)17(16)21/h2-8H,1H3",QTNAUUGQZYCWGQ-UHFFFAOYSA-N,CN1C(=O)C=C2c3ccccc3C(=O)c4c(Br)ccc1c24,-6.68044532140,0.00000000000,1,G1,340.17600,3.51240,85.75750,21,3,0,4,0,102,3,0,1,4,39.07,128.51442620583,2.34956522295,1001.57812096536
A-2233,3-hydroxy-N-(3-nitrophenyl)-2-naphthamide,"InChI=1S/C17H12N2O4/c20-16-9-12-5-2-1-4-11(12)8-15(16)17(21)18-13-6-3-7-14(10-13)19(22)23/h1-10,20H,(H,18,21)",YZJSKRBKHCLMQC-UHFFFAOYSA-N,Oc1cc2ccccc2cc1C(=O)Nc3cccc(c3)[N+]([O-])=O,-6.64386562390,0.00000000000,1,G1,308.29300,3.70590,86.66240,23,4,2,6,3,114,3,0,0,3,92.47,130.69369773004,1.92763027592,921.36535971221
A-2235,lanthanum(+3) cation; oxygen(-2) anion,InChI=1S/2La.3O/q2*+3;3*-2,MRELNEQAGSRDBK-UHFFFAOYSA-N,[O--].[O--].[O--].[La+3].[La+3],-6.67035383730,0.00000000000,1,G1,325.80900,-0.35640,2.05950,5,0,0,5,0,24,0,0,0,0,85.50,86.01814517376,0.00000000000,4.85475297227
A-2236,"bis(2,4-dichloro-5-nitrophenyl) carbonate",InChI=1S/C13H4Cl4N2O7/c14-5-1-7(16)11(3-9(5)18(21)22)25-13(20)26-12-4-10(19(23)24)6(15)2-8(12)17/h1-4H,CVUDBPILLYLOSC-UHFFFAOYSA-N,[O-][N+](=O)c1cc(OC(=O)Oc2cc(c(Cl)cc2Cl)[N+]([O-])=O)c(Cl)cc1Cl,-6.81290746120,0.00000000000,1,G1,441.99400,5.69440,92.88480,26,7,0,13,4,136,2,0,0,2,121.81,163.76106835154,2.27389732075,861.69394121002
A-2238,"Terphenyl, hydrogenated","InChI=1S/C18H22/c1-3-7-15(8-4-1)17-11-13-18(14-12-17)16-9-5-2-6-10-16/h1,3,5,9,11-16H,2,4,6-8,10H2",TVBYFUMVFJKKNJ-UHFFFAOYSA-N,C1CC=CC(C1)c2ccc(cc2)C3CCC=CC3,-6.59192904910,0.05888007595,2,G3,238.37400,5.33400,77.90600,18,0,0,0,2,94,1,0,2,3,0.00,110.41984012083,1.73610583439,435.61104413491
A-2240,octadec-9-en-1-yl dihydrogen phosphate,"InChI=1S/C18H36O.H3O4P/c1-2-3-4-5-6-7-8-9-10-11-12-13-14-15-16-17-18-19;1-5(2,3)4/h9-10,19H,2-8,11-18H2,1H3;(H3,1,2,3,4)/b10-9-;",JGVOASSDYQIBIF-KVVVOXFISA-N,CCCCCCCC\C=C/CCCCCCCCO.O[P](O)(O)=O,-6.78589784330,0.00000000000,1,G1,366.47900,5.08760,100.80070,24,2,4,6,15,146,0,0,0,0,97.99,147.98604077718,0.00000000000,293.51958274693
A-2241,4-tert-butylphenol; formaldehyde,"InChI=1S/C10H14O.CH2O/c1-10(2,3)8-4-6-9(11)7-5-8;1-2/h4-7,11H,1-3H3;1H2",LZDOYVMSNJBLIM-UHFFFAOYSA-N,CC(C)(C)c1ccc(O)cc1.C=O,-6.49394020670,0.00000000000,1,G1,180.24700,2.50480,53.92780,13,2,1,2,0,72,1,0,0,1,37.30,79.21770069725,0.00000067091,243.78794330538
A-2243,mercury,InChI=1S/Hg,QSHDDOUJBYECFT-UHFFFAOYSA-N,[Hg],-6.55412125140,0.00000000000,1,G1,200.59000,-0.00250,0.00000,1,0,0,1,0,2,0,0,0,0,0.00,28.00040585247,0.00000000000,0.00000000000
A-2244,"1-[(E)-2-(2,4-dimethylphenyl)diazen-1-yl]naphthalen-2-ol","InChI=1S/C18H16N2O/c1-12-7-9-16(13(2)11-12)19-20-18-15-6-4-3-5-14(15)8-10-17(18)21/h3-11,19H,1-2H3/b20-18-",YPXOPAFVVHXQDP-ZZEZOPTASA-N,Cc1ccc(N\N=C2/C(=O)C=Cc3ccccc23)c(C)c1,-6.70544429760,0.00000000000,1,G1,276.33900,3.71554,86.55870,21,3,1,3,2,104,2,0,1,3,41.46,123.55955861597,1.95609840783,772.53783597105
A-2245,methyl myristate,"InChI=1S/C15H30O2/c1-3-4-5-6-7-8-9-10-11-12-13-14-15(16)17-2/h3-14H2,1-2H3",ZAZKJZBWRNNLDS-UHFFFAOYSA-N,CCCCCCCCCCCCCC(=O)OC,-6.64973816080,0.00000000000,1,G1,242.40300,4.86050,73.09400,17,2,0,2,12,102,0,0,0,0,26.30,107.12350795893,2.96126814714,166.30475487798
A-2246,(4-anilino-1-naphthyl){bis[4-(dimethylamino)phenyl]}methanol,"InChI=1S/C33H33N3O/c1-35(2)27-18-14-24(15-19-27)33(37,25-16-20-28(21-17-25)36(3)4)31-22-23-32(30-13-9-8-12-29(30)31)34-26-10-6-5-7-11-26/h5-23,34,37H,1-4H3",WNDULEJVCPEASN-UHFFFAOYSA-N,CN(C)c1ccc(cc1)C(O)(c2ccc(cc2)N(C)C)c3ccc(Nc4ccccc4)c5ccccc35,-6.98913555240,0.00000000000,1,G1,487.64700,6.99960,157.31150,37,4,2,4,7,186,5,0,0,5,38.74,218.97282411762,1.71223611953,1439.73687345160
A-2248,N-{2-[(2-benzamidophenyl)disulfanyl]phenyl}benzamide,"InChI=1S/C26H20N2O2S2/c29-25(19-11-3-1-4-12-19)27-21-15-7-9-17-23(21)31-32-24-18-10-8-16-22(24)28-26(30)20-13-5-2-6-14-20/h1-18H,(H,27,29)(H,28,30)",ZHMIOPLMFZVSHY-UHFFFAOYSA-N,O=C(Nc1ccccc1SSc2ccccc2NC(=O)c3ccccc3)c4ccccc4,-6.97828706050,1.11092437480,2,G2,456.59200,6.99060,133.38840,32,4,2,6,7,158,4,0,0,4,58.20,194.40152067087,1.46690018354,1117.70172111527
A-2250,"N,N-DIBUTYLDODECANAMIDE","InChI=1S/C20H41NO/c1-4-7-10-11-12-13-14-15-16-17-20(22)21(18-8-5-2)19-9-6-3/h4-19H2,1-3H3",MFARGUPPFBTESX-UHFFFAOYSA-N,CCCCCCCCCCCC(=O)N(CCCC)CCCC,-7.01641207680,0.00000000000,1,G1,311.55400,6.33610,98.24000,22,1,0,2,16,132,0,0,0,0,20.31,139.59450697161,3.61382257299,231.86174320101
A-2251,(2-methoxy-5-nitrophenyl) acetate,"InChI=1S/C9H9NO5/c1-6(11)15-9-5-7(10(12)13)3-4-8(9)14-2/h3-5H,1-2H3",XBFBLYSAWSLPRY-UHFFFAOYSA-N,COc1ccc(cc1OC(C)=O)[N+]([O-])=O,-2.94660406730,0.00000000000,1,G1,211.17300,1.52870,50.95740,15,5,0,6,3,80,1,0,0,1,78.67,85.56781774424,3.12336812728,401.48921920288
A-2252,Copper; methanesulfonic acid,"InChI=1S/CH4O3S.Cu/c1-5(2,3)4;/h1H3,(H,2,3,4);",SDFNZYMSEOUVIF-UHFFFAOYSA-N,[Cu].C[S](O)(=O)=O,0.73233018220,0.00000000000,1,G1,159.65300,-0.49850,17.47260,6,2,1,5,0,43,0,0,0,0,54.37,46.96350731009,0.00000000000,93.96160537042
A-2253,4-methylbenzoyl 4-methylbenzene-1-carboperoxoate,"InChI=1S/C16H14O4/c1-11-3-7-13(8-4-11)15(17)19-20-16(18)14-9-5-12(2)6-10-14/h3-10H,1-2H3",AGKBXKFWMQLFGZ-UHFFFAOYSA-N,Cc1ccc(cc1)C(=O)OOC(=O)c2ccc(C)cc2,-6.79835188200,0.00000000000,1,G1,270.28400,3.23224,73.18900,20,4,0,4,2,102,2,0,0,2,52.60,116.42769575799,1.94375780908,554.43006145551
A-2255,2-cyclohexyl-6-[(3-cyclohexyl-2-hydroxy-5-methylphenyl)methyl]-4-methylphenol,"InChI=1S/C27H36O2/c1-18-13-22(26(28)24(15-18)20-9-5-3-6-10-20)17-23-14-19(2)16-25(27(23)29)21-11-7-4-8-12-21/h13-16,20-21,28-29H,3-12,17H2,1-2H3",AKNMPWVTPUHKCG-UHFFFAOYSA-N,Cc1cc(Cc2cc(C)cc(C3CCCCC3)c2O)c(O)c(c1)C4CCCCC4,-6.97903427340,0.54780415179,5,G4,392.58300,7.40084,120.14560,29,2,2,2,4,156,2,2,2,4,40.46,175.53943423884,1.66711988700,783.82689804296
A-2257,"1,2-bis(2-ethylhexyl) benzene-1,2-dicarboxylate","InChI=1S/C24H38O4/c1-5-9-13-19(7-3)17-27-23(25)21-15-11-12-16-22(21)24(26)28-18-20(8-4)14-10-6-2/h11-12,15-16,19-20H,5-10,13-14,17-18H2,1-4H3",BJQHLKABXJIVAM-UHFFFAOYSA-N,CCCCC(CC)COC(=O)c1ccccc1C(=O)OCC(CC)CCCC,-6.97890835320,0.61382935900,7,G4,390.56400,6.43300,113.61900,28,4,0,4,14,158,1,0,0,1,52.60,170.55049583774,2.69059045646,530.72280975106
A-2258,"1,2-bis(propan-2-yl)benzene; 1,3-bis(propan-2-yl)benzene; 1,4-bis(propan-2-yl)benzene","InChI=1S/C12H18/c1-9(2)11-7-5-6-8-12(11)10(3)4/h5-10H,1-4H3",OKIRBHVFJGXOIS-UHFFFAOYSA-N,CC(C)c1ccccc1C(C)C,-6.60279927090,0.00000000000,1,G1,162.27600,3.93340,54.62000,12,0,0,0,2,66,1,0,0,1,0.00,75.62105580588,3.08638877887,218.97015243201
A-2259,"1,3-diisopropylbenzene","InChI=1S/C12H18/c1-9(2)11-6-5-7-12(8-11)10(3)4/h5-10H,1-4H3",UNEATYXSUBPPKP-UHFFFAOYSA-N,CC(C)c1cccc(c1)C(C)C,-6.60279927090,0.00000000000,1,G1,162.27600,3.93340,54.62000,12,0,0,0,2,66,1,0,0,1,0.00,75.62105580588,2.95842190964,222.72015243201
A-2260,"(Z)-N-(1,3-dihydroxyoctadecan-2-yl)octadec-9-enamide","InChI=1S/C36H71NO3/c1-3-5-7-9-11-13-15-17-18-20-22-24-26-28-30-32-36(40)37-34(33-38)35(39)31-29-27-25-23-21-19-16-14-12-10-8-6-4-2/h17-18,34-35,38-39H,3-16,19-33H2,1-2H3,(H,37,40)/b18-17-",MJQIARGPQMNBGT-ZCXUNETKSA-N,CCCCCCCCCCCCCCCC(O)C(CO)NC(=O)CCCCCCC\C=C/CCCCCCCC,-6.45176188110,0.00000000000,1,G1,565.96800,10.34320,174.78730,40,3,3,4,32,238,0,0,0,0,69.56,250.12247378757,3.57573436600,536.13628829911
A-2262,hexadecanoic acid,"InChI=1S/C16H32O2/c1-2-3-4-5-6-7-8-9-10-11-12-13-14-15-16(17)18/h2-15H2,1H3,(H,17,18)",IPCSVZSSVZVIGE-UHFFFAOYSA-N,CCCCCCCCCCCCCCCC(O)=O,-6.80690884100,0.00000000000,1,G1,256.43000,5.55230,77.94780,18,1,1,2,14,108,0,0,0,0,37.30,113.16913859602,2.92296560903,177.93577382146
A-2264,"4,7-Methano-1H-indenol, 3a,4,5,6,7,7a-hexahydro-, acetate","InChI=1S/C12H16O2/c1-7(13)14-11-5-4-10-8-2-3-9(6-8)12(10)11/h5,8-10,12H,2-4,6H2,1H3",KARQHHMQOVRDNL-UHFFFAOYSA-N,CC(=O)OC1=CCC2C3CCC(C3)C12,-3.00972657090,0.00000000000,1,G1,192.25800,2.49940,52.27700,14,2,0,2,1,76,0,2,3,3,26.30,84.32158512297,1.80130481349,305.44359014414
A-2267,"octamethyl-1,3,5,7,2,4,6,8-tetraoxatetrasilocane","InChI=1S/C8H24O4Si4/c1-13(2)9-14(3,4)11-16(7,8)12-15(5,6)10-13/h1-8H3",HMMGMWAXVFQUOA-UHFFFAOYSA-N,C[Si]1(C)O[Si](C)(C)O[Si](C)(C)O[Si](C)(C)O1,-6.95368649070,0.40819059782,5,G5,296.62000,2.87360,74.26800,16,4,0,8,0,96,0,1,1,1,36.92,103.25277280588,2.97706074532,205.21187563523
A-2268,3-octanoyloxypropyl octanoate,"InChI=1S/C19H36O4/c1-3-5-7-9-11-14-18(20)22-16-13-17-23-19(21)15-12-10-8-6-4-2/h3-17H2,1-2H3",XBBMJUWOCGWHRP-UHFFFAOYSA-N,CCCCCCCC(=O)OCCCOC(=O)CCCCCCC,-7.51652611940,0.00000000000,1,G1,328.49300,5.18390,93.28700,23,4,0,4,16,136,0,0,0,0,52.60,141.85834374607,3.29947798384,261.09419995128
A-2269,"1-(3,3-dimethylcyclohexyl)pent-4-en-1-one","InChI=1S/C13H22O/c1-4-5-8-12(14)11-7-6-9-13(2,3)10-11/h4,11H,1,5-10H2,2-3H3",OHYNEUHOSWPWLZ-UHFFFAOYSA-N,CC1(C)CCCC(C1)C(=O)CCC=C,-4.77931050960,0.00000000000,1,G1,194.31800,3.73810,60.17700,14,1,0,1,4,80,0,1,1,1,17.07,87.58464431492,2.43201294576,215.27545260759
A-2270,9-ethyl-9H-carbazole,"InChI=1S/C14H13N/c1-2-15-13-9-5-3-7-11(13)12-8-4-6-10-14(12)15/h3-10H,2H2,1H3",PLAZXGNBGZYJSA-UHFFFAOYSA-N,CCn1c2ccccc2c3ccccc13,-6.81350315100,0.00000000000,1,G1,195.26500,3.81440,65.11800,15,1,0,1,1,74,3,0,0,3,4.93,88.94374831937,2.61690907088,566.10709325449
A-2271,N-ethyl-N-{2-[1-(2-methylpropoxy)ethoxy]ethyl}-4-[(E)-2-phenyldiazen-1-yl]aniline,"InChI=1S/C22H31N3O2/c1-5-25(15-16-26-19(4)27-17-18(2)3)22-13-11-21(12-14-22)24-23-20-9-7-6-8-10-20/h6-14,18-19H,5,15-17H2,1-4H3",BATVZJPOLFSGTD-UHFFFAOYSA-N,CCN(CCOC(C)OCC(C)C)c1ccc(cc1)N=Nc2ccccc2,-7.09050376610,0.00000000000,1,G1,369.50900,5.96350,111.15100,27,5,0,5,11,146,2,0,0,2,46.42,162.57162044323,1.83195965395,671.71706235778
A-2272,zirconium(4+) ion diphosphate,"InChI=1S/4H3O4P.3Zr/c4*1-5(2,3)4;;;/h4*(H3,1,2,3,4);;;/q;;;;3*+4/p-12",LEHFSLREWWMLPU-UHFFFAOYSA-B,[Zr+4].[Zr+4].[Zr+4].[O-][P]([O-])([O-])=O.[O-][P]([O-])([O-])=O.[O-][P]([O-])([O-])=O.[O-][P]([O-])([O-])=O,-7.33815889330,1.38798207487,3,G4,653.55200,-11.30590,30.42600,23,16,0,23,0,128,0,0,0,0,345.00,184.86582287005,-0.00000002844,291.98263505218
A-2273,"3-[(E)-4-[[5,6-di(phenyl)-1,2,4-triazin-3-yl]sulfanyl]but-2-enyl]sulfanyl-5,6-di(phenyl)-1,2,4-triazine","InChI=1S/C34H26N6S2/c1-5-15-25(16-6-1)29-31(27-19-9-3-10-20-27)37-39-33(35-29)41-23-13-14-24-42-34-36-30(26-17-7-2-8-18-26)32(38-40-34)28-21-11-4-12-22-28/h1-22H,23-24H2/b14-13+",IBPFDTBQAMYTIU-BUHFOSPRSA-N,C(Sc1nnc(c2ccccc2)c(n1)c3ccccc3)\C=C\CSc4nnc(c5ccccc5)c(n4)c6ccccc6,-7.02512555470,0.00000000000,1,G1,582.75800,8.16520,171.98600,42,8,0,8,10,204,6,0,0,6,77.34,252.98805464844,1.11898554828,1634.48984001224
A-2274,"1-(4-tert-butylphenyl)-3-(4-methoxyphenyl)propane-1,3-dione","InChI=1S/C20H22O3/c1-20(2,3)16-9-5-14(6-10-16)18(21)13-19(22)15-7-11-17(23-4)12-8-15/h5-12H,13H2,1-4H3",XNEFYCZVKIDDMS-UHFFFAOYSA-N,COc1ccc(cc1)C(=O)CC(=O)c2ccc(cc2)C(C)(C)C,-7.06054815430,0.00000000000,1,G1,310.39300,4.44840,91.41400,23,3,0,3,5,120,2,0,0,2,43.37,136.84462367033,2.06872440313,689.16179950430
A-2277,"2,2,4,6,6-pentamethyl-3,5-dioxa-2,4,6-trisilaheptane","InChI=1S/C7H21O2Si3/c1-10(8-11(2,3)4)9-12(5,6)7/h1-7H3",SWGZAKPJNWCPRY-UHFFFAOYSA-N,C[Si](O[Si](C)(C)C)O[Si](C)(C)C,-7.04434569560,0.00000000000,1,G1,221.50100,2.80740,60.48000,12,2,0,5,4,73,0,0,0,0,18.46,80.38894464379,3.83035546409,120.56736464594
A-2282,"5-hydroxy-2-(3-hydroxy-4-methoxyphenyl)-7-{[(2S,3R,4S,5S,6R)-3,4,5-trihydroxy-6-({[(2R,3R,4R,5R,6S)-3,4,5-trihydroxy-6-methyloxan-2-yl]oxy}methyl)oxan-2-yl]oxy}-4H-chromen-4-one","InChI=1S/C28H32O15/c1-10-21(32)23(34)25(36)27(40-10)39-9-19-22(33)24(35)26(37)28(43-19)41-12-6-14(30)20-15(31)8-17(42-18(20)7-12)11-3-4-16(38-2)13(29)5-11/h3-8,10,19,21-30,32-37H,9H2,1-2H3/t10-,19+,21-,22+,23+,24-,25+,26+,27+,28+/m0/s1",GZSOSUNBTXMUFQ-YFAPSIMESA-N,COc1ccc(cc1O)C2=CC(=O)c3c(O)cc(O[C@@H]4O[C@H](CO[C@@H]5O[C@@H](C)[C@H](O)[C@@H](O)[C@H]5O)[C@@H](O)[C@H](O)[C@H]4O)cc3O2,-7.50554195220,0.00000000000,1,G1,608.54900,-1.08970,143.41840,43,15,8,15,7,234,3,2,2,5,238.20,242.79068212655,1.36181192075,1507.49207609051
A-2283,"1,3,5-tris[[(2R)-oxiran-2-yl]methyl]-1,3,5-triazinane-2,4,6-trione","InChI=1S/C12H15N3O6/c16-10-13(1-7-4-19-7)11(17)15(3-9-6-21-9)12(18)14(10)2-8-5-20-8/h7-9H,1-6H2/t7-,8-,9-/m1/s1",OUPZKGBUJRBPGC-IWSPIJDZSA-N,O=C1N(C[C@@H]2CO2)C(=O)N(C[C@@H]3CO3)C(=O)N1C[C@@H]4CO4,-2.46882532650,0.00000000000,1,G1,297.26700,-2.63190,68.44200,21,9,0,9,6,114,1,3,3,4,103.59,117.81244907976,1.80824937539,604.53901647618
A-2284,"4,11-diamino-2-(3-methoxypropyl)-1H,2H,3H,5H,10H-naphtho[2,3-f]isoindole-1,3,5,10-tetrone","InChI=1S/C20H17N3O5/c1-28-8-4-7-23-19(26)13-14(20(23)27)16(22)12-11(15(13)21)17(24)9-5-2-3-6-10(9)18(12)25/h2-3,5-6H,4,7-8,21-22H2,1H3",WBCXRDHKXHADQF-UHFFFAOYSA-N,COCCCN1C(=O)c2c(N)c3C(=O)c4ccccc4C(=O)c3c(N)c2C1=O,-7.32379276900,0.42866624820,2,G3,379.37200,0.46500,109.71980,28,8,2,8,4,142,4,0,0,4,134.48,156.79471210361,2.24752772347,1370.53618255202