ID,Name,InChI,InChIKey,SMILES,Solubility,SD,Ocurrences,Group,MolWt,MolLogP,MolMR,HeavyAtomCount,NumHAcceptors,NumHDonors,NumHeteroatoms,NumRotatableBonds,NumValenceElectrons,NumAromaticRings,NumSaturatedRings,NumAliphaticRings,RingCount,TPSA,LabuteASA,BalabanJ,BertzCT
A-3613,cadmium dichloride,InChI=1S/Cd.2ClH/h;2*1H/q+2;;/p-2,YKYOUMDCQGMQQO-UHFFFAOYSA-L,[Cl-].[Cl-].[Cd++],0.39671108960,0.00000000000,1,G1,183.31800,-5.99450,0.00000,3,0,0,3,0,16,0,0,0,0,0.00,51.95721583856,0.00000000000,2.75488750216
A-3614,sodium 2-bromoethane-1-sulfonate,"InChI=1S/C2H5BrO3S.Na/c3-1-2-7(4,5)6;/h1-2H2,(H,4,5,6);/q;+1/p-1",HNFOAHXBHLWKNF-UHFFFAOYSA-M,[Na+].[O-][S](=O)(=O)CCBr,0.33274869900,0.00000000000,1,G1,211.01200,-3.06950,28.35820,8,3,0,6,2,44,0,0,0,0,57.20,79.01377638062,0.00000000000,130.21884910035
A-3615,"benzene-1,2-diol","InChI=1S/C6H6O2/c7-5-3-1-2-4-6(5)8/h1-4,7-8H",YCIMNLLNPGFGHC-UHFFFAOYSA-N,Oc1ccccc1O,0.61234189090,0.05611815265,2,G3,110.11200,1.09780,29.77160,8,2,2,2,0,42,1,0,0,1,40.46,47.01987062389,3.13486151135,162.63833891467
A-3616,"N,N-diethylhydroxylamine","InChI=1S/C4H11NO/c1-3-5(6)4-2/h6H,3-4H2,1-2H3",FVCOIAYSJZGECG-UHFFFAOYSA-N,CCN(O)CC,0.70363190980,0.05587066045,2,G3,89.13800,0.71740,24.70750,6,2,1,2,2,38,0,0,0,0,23.47,38.34218329290,2.75418478604,26.72905595320
A-3617,bis(amino(imino)methanaminium) carbonate,"InChI=1S/2CH5N3.CH2O3/c3*2-1(3)4/h2*(H5,2,3,4);(H2,2,3,4)",STIAPHVBRDNOAJ-UHFFFAOYSA-N,NC(N)=N.NC(N)=N.OC(O)=O,0.39753485620,0.00000000000,1,G1,180.16800,-2.10046,42.85660,12,3,8,9,0,72,0,0,0,0,209.31,67.96105195470,-0.00000010125,115.58797503894
A-3618,lithium(1+) ion acetate,"InChI=1S/C2H4O2.Li/c1-2(3)4;/h1H3,(H,3,4);/q;+1/p-1",XIXADJRWDQXREU-UHFFFAOYSA-M,[Li+].CC([O-])=O,0.83376729270,0.12485210547,5,G5,65.98500,-4.23980,10.68100,5,2,0,3,0,24,0,0,0,0,40.13,42.35751452040,0.00000000000,30.62919048309
A-3621,4-{2-[(2-methylprop-2-enoyl)oxy]ethoxy}-4-oxobutanoic acid,"InChI=1S/C10H14O6/c1-7(2)10(14)16-6-5-15-9(13)4-3-8(11)12/h1,3-6H2,2H3,(H,11,12)",ZEWLHMQYEZXSBH-UHFFFAOYSA-N,CC(=C)C(=O)OCCOC(=O)CCC(O)=O,-0.70670891600,0.00000000000,1,G1,230.21600,0.51370,53.60180,16,5,1,6,7,90,0,0,0,0,89.90,92.84001753656,3.51590596408,293.68437978331
A-3622,"(4S,4aS,5aS,6S,12aR)-7-chloro-4-(dimethylamino)-1,6,10,11,12a-pentahydroxy-3,12-dioxo-3,4,4a,5,5a,6,12,12a-octahydrotetracene-2-carboxamide hydrochloride","InChI=1S/C21H21ClN2O8.ClH/c1-24(2)14-7-5-6-10(16(27)12-9(25)4-3-8(22)11(12)15(6)26)18(29)21(7,32)19(30)13(17(14)28)20(23)31;/h3-4,6-7,14-15,25-27,31-32H,5,23H2,1-2H3;1H/b20-13-;/t6-,7-,14-,15-,21-;/m0./s1",POPIIQNWBBGGRT-YHBXTMLJSA-N,[Cl-].CN(C)[C@H]1[C@@H]2C[C@@H]3[C@H](O)c4c(Cl)ccc(O)c4C(=C3C(=O)[C@]2(O)C(=O)\C(=C(N)/O)C1=O)O.[H+],-1.04690165090,0.00000000000,1,G1,501.31900,-2.77520,111.62240,33,10,6,12,1,178,1,2,3,4,181.62,200.00545258774,0.00000204167,1163.67265364064
A-3623,2-methylbutanoic acid,"InChI=1S/C5H10O2/c1-3-4(2)5(6)7/h4H,3H2,1-2H3,(H,6,7)",WLAMNBDJUVNPJU-UHFFFAOYSA-N,CCC(C)C(O)=O,-0.35595357510,0.00000000000,1,G1,102.13300,1.11710,27.09080,7,1,1,2,2,42,0,0,0,0,37.30,43.15477533766,3.34341705895,68.48040587771
A-3625,diiron(3+) ion trisulfate,"InChI=1S/2Fe.3H2O4S/c;;3*1-5(2,3)4/h;;3*(H2,1,2,3,4)/q2*+3;;;/p-6",RUTXIHLAWFEWGM-UHFFFAOYSA-H,[Fe+3].[Fe+3].[O-][S]([O-])(=O)=O.[O-][S]([O-])(=O)=O.[O-][S]([O-])(=O)=O,1.04152407910,0.00000000000,1,G1,399.87900,-4.01900,31.42380,17,12,0,17,0,106,0,0,0,0,240.78,117.47283267982,-0.00000004000,340.65589692766
A-3629,zinc dibromide,InChI=1S/2BrH.Zn/h2*1H;/q;;+2/p-2,VNDYJBBGRKZCSX-UHFFFAOYSA-L,[Zn++].[Br-].[Br-],1.29774299390,0.00000000000,1,G1,225.19800,-5.99450,0.00000,3,0,0,3,0,16,0,0,0,0,0.00,53.27721002736,0.00000000000,2.75488750216
A-3631,"chromium(3+) ion pentasodium bis(8-[(4-amino-6-chloro-1,3,5-triazin-2-yl)amino]-2-[(E)-2-(5-nitro-2-oxidophenyl)diazen-1-yl]-3,6-disulfonatonaphthalen-1-olate)","InChI=1S/2C19H13ClN8O10S2.Cr.5Na/c2*20-17-23-18(21)25-19(24-17)22-11-6-9(39(33,34)35)3-7-4-13(40(36,37)38)15(16(30)14(7)11)27-26-10-5-8(28(31)32)1-2-12(10)29;;;;;;/h2*1-6,29-30H,(H,33,34,35)(H,36,37,38)(H3,21,22,23,24,25);;;;;;/q;;+3;5*+1/p-8",AICVXAYCWMYBPS-UHFFFAOYSA-F,[Na+].[Na+].[Na+].[Na+].[Na+].[Cr+3].Nc1nc(Cl)nc(Nc2cc(cc3cc(c(N=Nc4cc(ccc4[O-])[N+]([O-])=O)c([O-])c23)[S]([O-])(=O)=O)[S]([O-])(=O)=O)n1.Nc5nc(Cl)nc(Nc6cc(cc7cc(c(N=Nc8cc(ccc8[O-])[N+]([O-])=O)c([O-])c67)[S]([O-])(=O)=O)[S]([O-])(=O)=O)n5,-0.49497517460,0.00000000000,1,G1,1384.77400,-12.41650,257.14180,86,34,4,48,14,419,8,0,0,8,610.20,611.62145775597,0.00000080391,4219.21287002779
A-3636,sodium 3-(4-methyl-2-nitrophenoxy)propanesulphonate,"InChI=1S/C10H13NO6S.Na/c1-8-3-4-10(9(7-8)11(12)13)17-5-2-6-18(14,15)16;/h3-4,7H,2,5-6H2,1H3,(H,14,15,16);/q;+1/p-1",NYUMEYVVSINMIU-UHFFFAOYSA-M,[Na+].Cc1ccc(OCCC[S]([O-])(=O)=O)c(c1)[N+]([O-])=O,0.17031035910,0.00000000000,1,G1,297.26400,-1.77868,62.50960,19,6,0,9,6,100,1,0,0,1,109.57,132.69972816184,0.00000324000,544.95090089374
A-3639,"2-butyl-1,3-diazaspiro[4.4]non-1-en-4-one 2-butyl-1,3-diazaspiro[4.4]non-2-en-4-one dihydrochloride","InChI=1S/2C11H18N2O.2ClH/c2*1-2-3-6-9-12-10(14)11(13-9)7-4-5-8-11;;/h2*2-8H2,1H3,(H,12,13,14);2*1H",IIJDGRLUYMOVFN-UHFFFAOYSA-N,Cl.Cl.CCCCC1=NC2(CCCC2)C(=O)N1.CCCCC3=NC(=O)C4(CCCC4)N3,-1.01961394400,0.00000000000,1,G1,461.47800,4.87900,127.09940,30,4,2,8,6,172,0,2,4,4,82.92,192.90514201369,0.00000028125,651.52297352869
A-3640,"trisodium 5-({4-chloro-6-[ethyl(phenyl)amino]-1,3,5-triazin-2-yl}amino)-4-hydroxy-3-[(E)-2-(2-sulfonatophenyl)diazen-1-yl]naphthalene-2,7-disulfonate","InChI=1S/C27H22ClN7O10S3.3Na/c1-2-35(16-8-4-3-5-9-16)27-31-25(28)30-26(32-27)29-19-14-17(46(37,38)39)12-15-13-21(48(43,44)45)23(24(36)22(15)19)34-33-18-10-6-7-11-20(18)47(40,41)42;;;/h3-14,33H,2H2,1H3,(H,37,38,39)(H,40,41,42)(H,43,44,45)(H,29,30,31,32);;;/q;3*+1/p-3/b34-23+;;;",LTDWIWZCTPXWKI-BGSWCMMMSA-K,[Na+].[Na+].[Na+].CCN(c1ccccc1)c2nc(Cl)nc(Nc3cc(cc4C=C(\C(=N/Nc5ccccc5[S]([O-])(=O)=O)C(=O)c34)[S]([O-])(=O)=O)[S]([O-])(=O)=O)n2,-0.26674528410,0.00000000000,1,G1,802.11200,-6.20270,169.11450,51,17,2,24,10,250,4,0,1,5,267.00,363.07175994989,0.00000300444,2370.80479307569
A-3641,zinc(2+) ion dichloride,InChI=1S/2ClH.Zn/h2*1H;/q;;+2/p-2,JIAARYAFYJHUJI-UHFFFAOYSA-L,[Cl-].[Cl-].[Zn++],0.50100063640,0.14722290665,2,G3,136.29600,-5.99450,0.00000,3,0,0,3,0,16,0,0,0,0,0.00,44.55799230757,0.00000000000,2.75488750216
A-3642,thymidine,"InChI=1S/C10H14N2O5/c1-5-3-12(10(16)11-9(5)15)8-2-6(14)7(4-13)17-8/h3,6-8,13-14H,2,4H2,1H3,(H,11,15,16)",IQFYYKKMVGJFEH-UHFFFAOYSA-N,CC1=CN(C2CC(O)C(CO)O2)C(=O)NC1=O,-0.74206208770,0.00000000000,1,G1,242.23100,-1.51428,57.67930,17,6,3,7,2,94,1,1,1,2,104.55,96.28954903482,2.33539604192,520.16292179628
A-3646,"2-[(E)-2-[4-(diethylamino)phenyl]ethenyl]-1,3,3-trimethyl-3H-indol-1-ium acetate","InChI=1S/C23H29N2.C2H4O2/c1-6-25(7-2)19-15-12-18(13-16-19)14-17-22-23(3,4)20-10-8-9-11-21(20)24(22)5;1-2(3)4/h8-17H,6-7H2,1-5H3;1H3,(H,3,4)/q+1;/p-1",KEUVYXFBMUFRGG-UHFFFAOYSA-M,CCN(CC)c1ccc(cc1)C=CC2=[N+](C)c3ccccc3C2(C)C.CC([O-])=O,-0.96041878170,0.00000000000,1,G1,392.54300,4.00840,120.03740,29,3,0,4,5,154,2,0,1,3,46.38,174.36402527543,0.00000068700,900.67552774547
A-3647,"2-[2-[4-(diethylamino)phenyl]vinyl]-1,3,3-trimethyl-3H-indolium dihydrogen phosphate","InChI=1S/C23H29N2.H3O4P/c1-6-25(7-2)19-15-12-18(13-16-19)14-17-22-23(3,4)20-10-8-9-11-21(20)24(22)5;1-5(2,3)4/h8-17H,6-7H2,1-5H3;(H3,1,2,3,4)/q+1;/p-1",DNQYATSEPGGRFT-UHFFFAOYSA-M,CCN(CC)c1ccc(cc1)C=CC2=[N+](C)c3ccccc3C2(C)C.O[P](O)([O-])=O,-1.00048956770,0.00000000000,1,G1,430.48500,3.69160,121.40050,30,3,2,7,5,162,2,0,1,3,86.84,178.61069712546,0.00000057453,962.68789144807
A-3648,disodium 4-[(3-carboxylato-2-hydroxynaphthalen-1-yl)methyl]-3-hydroxynaphthalene-2-carboxylate,"InChI=1S/C23H16O6.Na/c24-20-16(14-7-3-1-5-12(14)9-18(20)22(26)27)11-17-15-8-4-2-6-13(15)10-19(21(17)25)23(28)29;/h1-10,24-25H,11H2,(H,26,27)(H,28,29);",MQIPLTYHZCWJRA-UHFFFAOYSA-N,[Na].OC(=O)c1cc2ccccc2c(Cc3c(O)c(cc4ccccc34)C(O)=O)c1O,-0.98075888250,0.00000000000,1,G1,411.36500,4.01060,113.70420,30,4,4,7,4,145,4,0,0,4,115.06,192.86003156380,0.00000256000,1211.07769037640
A-3650,"diammonium 2,3-dihydroxybutanedioate","InChI=1S/C4H6O6.2H3N/c5-1(3(7)8)2(6)4(9)10;;/h1-2,5-6H,(H,7,8)(H,9,10);2*1H3/t1-,2-;;/m1../s1",NGPGDYLVALNKEG-OLXYHTOASA-N,N.N.O[C@H]([C@@H](O)C(O)=O)C(O)=O,0.36627676260,0.00000000000,1,G1,184.14800,-1.79860,37.32940,12,6,6,8,3,74,0,0,0,0,185.06,67.60555730778,-0.00000040500,141.62707505625
A-3651,5-(aminomethyl)-2-methylpyrimidin-4-amine,"InChI=1S/C6H10N4/c1-4-9-3-5(2-7)6(8)10-4/h3H,2,7H2,1H3,(H2,8,9,10)",OZOHTVFCSKFMLL-UHFFFAOYSA-N,Cc1ncc(CN)c(N)n1,0.49030656270,0.00000000000,1,G1,138.17400,-0.17408,39.07280,10,4,2,4,1,54,1,0,0,1,77.82,59.28036470421,3.06998271500,233.18946744190
A-3652,manganese(2+) dinitrate,InChI=1S/Mn.2NO3/c;2*2-1(3)4/q+2;2*-1,MIVBAHRSNUNMPP-UHFFFAOYSA-N,[Mn++].[O-][N+]([O-])=O.[O-][N+]([O-])=O,1.37709520100,0.00000000000,1,G1,178.94600,-0.48070,20.72280,9,6,0,9,0,53,0,0,0,0,132.40,58.77825628753,-0.00000007200,69.05865002596
A-3653,(3-{[3-(dimethylamino)propyl]amino}propyl)dimethylamine,"InChI=1S/C10H25N3/c1-12(2)9-5-7-11-8-6-10-13(3)4/h11H,5-10H2,1-4H3",BXYVQNNEFZOBOZ-UHFFFAOYSA-N,CN(C)CCCNCCCN(C)C,0.35585080360,0.15627689435,2,G3,187.33100,0.47940,59.21170,13,3,1,3,8,80,0,0,0,0,18.51,83.09325958141,2.91636218704,90.34298055647
A-3654,"2-(2,4-diaminophenoxy)ethan-1-ol dihydrochloride","InChI=1S/C8H12N2O2.2ClH/c9-6-1-2-8(7(10)5-6)12-4-3-11;;/h1-2,5,11H,3-4,9-10H2;2*1H",VXYWXJXCQSDNHX-UHFFFAOYSA-N,[H+].[H+].[Cl-].[Cl-].Nc1ccc(OCCO)c(N)c1,0.24615929740,0.00000000000,1,G1,241.11800,-5.54490,50.07160,14,4,3,6,3,82,1,0,0,1,81.50,98.02463096811,-0.00000018000,280.21526492985
A-3655,"trisodium 2-hydroxypropane-1,2,3-tricarboxylate","InChI=1S/C6H8O7.3Na/c7-3(8)1-6(13,5(11)12)2-4(9)10;;;/h13H,1-2H2,(H,7,8)(H,9,10)(H,11,12);;;/q;3*+1/p-3",HRXKRNGNAMMEHJ-UHFFFAOYSA-K,[Na+].[Na+].[Na+].OC(CC([O-])=O)(CC([O-])=O)C([O-])=O,0.21665309110,0.09786845195,2,G3,258.06900,-14.24060,29.20480,16,7,1,10,5,74,0,0,0,0,140.62,157.46566177686,-0.00000024000,238.50671838244
A-3657,aluminium(3+) ion trinitrate,InChI=1S/Al.3NO3.9H2O/c;3*2-1(3)4;;;;;;;;;/h;;;;9*1H2/q+3;3*-1;;;;;;;;;,SWCIQHXIXUMHKA-UHFFFAOYSA-N,O.O.O.O.O.O.O.O.O.[Al+3].[O-][N+]([O-])=O.[O-][N+]([O-])=O.[O-][N](=O)=O,-0.94081319420,0.00000000000,1,G1,375.12900,-8.52040,69.36240,22,9,0,22,0,144,0,0,0,0,482.10,128.79000899073,-0.00000000409,115.88193312084
A-3658,sodium fluoride,InChI=1S/FH.Na/h1H;/q;+1/p-1,PUZPDOWCWNUUKD-UHFFFAOYSA-M,[F-].[Na+],-0.00218726240,0.00000000000,1,G1,41.98800,-5.99200,0.00000,2,0,0,2,0,8,0,0,0,0,0.00,34.51054034702,0.00000000000,2.00000000000
A-3661,1-phenylethanamine,"InChI=1S/C8H11N/c1-7(9)8-5-3-2-4-6-8/h2-7H,9H2,1H3/t7-/m0/s1",RQEUFEKYXDPUSK-ZETCQYMHSA-N,C[C@H](N)c1ccccc1,-0.46019240930,0.00000000000,1,G1,121.18300,1.70630,39.04440,9,1,1,1,1,48,1,0,0,1,26.02,55.50117804530,2.84823405060,167.18232643414
A-3665,sodium 4-(methoxycarbonyl)phenolate,"InChI=1S/C8H8O3.Na/c1-11-8(10)6-2-4-7(9)5-3-6;/h2-5,9H,1H3;/q;+1/p-1",PESXGULMKCKJCC-UHFFFAOYSA-M,[Na+].COC(=O)c1ccc([O-])cc1,0.38030018770,0.00000000000,1,G1,174.13100,-2.44920,37.22750,12,3,0,4,1,58,1,0,0,1,49.36,92.64398805275,0.00000121000,255.51041228537
A-3666,sodium hydrogen 2-aminopentanedioate,"InChI=1S/C5H9NO4.Na/c6-3(5(9)10)1-2-4(7)8;/h3H,1-2,6H2,(H,7,8)(H,9,10);/q;+1/p-1",LPUQAYUQRXPFSQ-UHFFFAOYSA-M,[Na+].NC(CCC(O)=O)C([O-])=O,0.39196162920,0.12611802574,3,G5,169.11200,-5.06760,29.85220,11,4,2,6,4,58,0,0,0,0,103.45,85.86382150962,0.00000000000,149.41784393309
A-3667,sodium azide,InChI=1S/N3.Na/c1-3-2;/q-1;+1,PXIPVTKHYLBLMZ-UHFFFAOYSA-N,[Na+].[N-]=[N+]=[N-],0.80401349470,0.00000000000,1,G1,65.01100,-2.12990,10.07700,4,0,0,4,0,16,0,0,0,0,58.70,45.71145906832,0.00000000000,24.26466250649
A-3668,manganese(2+) ion disodium 2-({2-[bis(carboxylatomethyl)amino]ethyl}(carboxylatomethyl)amino)acetate,"InChI=1S/C10H16N2O8.Mn.2Na/c13-7(14)3-11(4-8(15)16)1-2-12(5-9(17)18)6-10(19)20;;;/h1-6H2,(H,13,14)(H,15,16)(H,17,18)(H,19,20);;;/q;+2;2*+1/p-4",ZQHKAIDDHTYINE-UHFFFAOYSA-J,[Na+].[Na+].[Mn++].[O-]C(=O)CN(CCN(CC([O-])=O)CC([O-])=O)CC([O-])=O,0.02480250200,0.00000000000,1,G1,389.13000,-13.40450,52.90800,23,10,0,13,11,119,0,0,0,0,167.00,186.78884032441,-0.00000060167,331.05724414428
A-3671,diammonium oxalate,"InChI=1S/C2H2O4.2H3N/c3-1(4)2(5)6;;/h(H,3,4)(H,5,6);2*1H3",VBIXEXWLHSRNKB-UHFFFAOYSA-N,[NH4+].[NH4+].[O-]C(=O)C([O-])=O,-0.47258150130,0.13605615822,4,G5,124.09600,-2.76140,21.98360,8,4,2,6,0,50,0,0,0,0,153.26,45.28720557460,-0.00000012500,78.03910001731
A-3673,(2S)-2-amino-4-carbamoylbutanoic acid,"InChI=1S/C5H10N2O3/c6-3(5(9)10)1-2-4(7)8/h3H,1-2,6H2,(H2,7,8)(H,9,10)/t3-/m0/s1",ZDXPYRJPNDTMRX-VKHMYHEASA-N,N[C@@H](CCC(N)=O)C(O)=O,-0.54831141940,0.03178203180,2,G3,146.14600,-1.33620,34.03960,10,3,3,5,4,58,0,0,0,0,106.41,57.99607883172,3.49072966039,145.82848957478
A-3674,(2S)-2-amino-3-methylpentanoic acid,"InChI=1S/C6H13NO2/c1-3-4(2)5(7)6(8)9/h4-5H,3,7H2,1-2H3,(H,8,9)/t4-,5-/m0/s1",AGPKZVBTJJNPAG-WHFBIAKZSA-N,CC[C@H](C)[C@H](N)C(O)=O,-0.50295385680,0.04170914950,2,G3,131.17500,0.44440,35.06620,9,2,2,3,3,54,0,0,0,0,63.32,54.85960814907,3.71613677118,103.23098268032
A-3675,"2-[(2H-1,3-benzodioxol-5-yl)amino]ethan-1-ol hydrochloride","InChI=1S/C9H11NO3.ClH/c11-4-3-10-7-1-2-8-9(5-7)13-6-12-8;/h1-2,5,10-11H,3-4,6H2;1H",LMONVTDNVNEAQG-UHFFFAOYSA-N,[H+].[Cl-].OCCNc1ccc2OCOc2c1,0.27289750090,0.00000000000,1,G1,217.65200,-2.06400,49.25250,14,4,2,5,3,78,1,0,1,2,50.72,89.72947632602,0.00000098000,311.40897284476
A-3678,"2,5-dihydrofuran-2,5-dione",InChI=1S/C4H2O3/c5-3-1-2-4(6)7-3/h1-2H,FPYJFEHAWHCUMM-UHFFFAOYSA-N,O=C1OC(=O)C=C1,0.61811580710,0.00579093630,2,G3,98.05700,-0.37400,20.23900,7,3,0,3,0,36,0,0,1,1,43.37,39.57523261490,2.75954361431,129.01389700416
A-3683,disodium carbonate,"InChI=1S/CH2O3.2Na/c2-1(3)4;;/h(H2,2,3,4);;/q;2*+1/p-2",CDBYLPFSWZWCQE-UHFFFAOYSA-L,[Na+].[Na+].[O-]C([O-])=O,0.58112466800,0.13951121535,2,G3,105.98800,-8.43900,5.39600,6,3,0,5,0,24,0,0,0,0,63.19,79.31603987769,-0.00000004500,31.77443751082
A-3685,"disodium 7-({bis[(2-hydroxyethyl)amino]-1,3,5-triazin-2-yl}amino)-4-hydroxy-3-[(E)-2-{4-[(E)-2-(4-sulfonatophenyl)diazen-1-yl]phenyl}diazen-1-yl]naphthalene-2-sulfonate","InChI=1S/C29H28N10O9S2.2Na/c40-13-11-30-27-33-28(31-12-14-41)35-29(34-27)32-21-7-10-23-17(15-21)16-24(50(46,47)48)25(26(23)42)39-38-19-3-1-18(2-4-19)36-37-20-5-8-22(9-6-20)49(43,44)45;;/h1-10,15-16,38,40-41H,11-14H2,(H,43,44,45)(H,46,47,48)(H3,30,31,32,33,34,35);;/q;2*+1/p-2/b37-36?,39-25-;;",GCRNVICBLHQKTF-FOZHKXGMSA-L,[Na+].[Na+].OCCNc1nc(NCCO)nc(Nc2ccc3C(=O)C(=N/Nc4ccc(cc4)N=Nc5ccc(cc5)[S]([O-])(=O)=O)\C(=Cc3c2)[S]([O-])(=O)=O)n1,-0.28369801970,0.00000000000,1,G1,768.70200,-3.69840,178.78830,52,19,6,23,14,260,4,0,1,5,295.80,340.83147836495,0.00000364499,2197.04803934073
A-3687,2-methyloxirane,"InChI=1S/C3H6O/c1-3-2-4-3/h3H,2H2,1H3/t3-/m0/s1",GOOHAUXETOMSMM-VKHMYHEASA-N,C[C@H]1CO1,0.83803338360,0.00000000000,1,G1,58.08000,0.40510,15.41400,4,1,0,1,0,24,0,1,1,1,12.53,25.57684933260,2.17109831787,22.46439344671
A-3688,"disodium 2,2'-(azodi-p-phenylene)bis[6-methylbenzothiazole-7-sulphonate]","InChI=1S/C28H20N4O6S4.2Na/c1-15-3-13-21-23(25(15)41(33,34)35)39-27(29-21)17-5-9-19(10-6-17)31-32-20-11-7-18(8-12-20)28-30-22-14-4-16(2)26(24(22)40-28)42(36,37)38;;/h3-14H,1-2H3,(H,33,34,35)(H,36,37,38);;/q;2*+1/p-2",GRUAQEWEHJNSDG-UHFFFAOYSA-L,[Na+].[Na+].Cc1ccc2nc(sc2c1[S]([O-])(=O)=O)c3ccc(cc3)N=Nc4ccc(cc4)c5sc6c(ccc(C)c6[S]([O-])(=O)=O)n5,-1.22230962350,0.00000000000,1,G1,680.72200,1.08844,159.68840,44,12,0,16,6,212,6,0,0,6,164.90,304.94677064266,0.00000220900,2106.39843581713
A-3690,1-[2-(2-butoxy-1-methylethoxy)-1-methylethoxy]propan-1-ol,"InChI=1S/C13H28O4/c1-4-15-7-5-6-13(3)17-9-8-16-11-12(2)10-14/h12-14H,4-11H2,1-3H3",QVIFIIFBFORLSL-UHFFFAOYSA-N,CCOCCCC(C)OCCOCC(C)CO,-0.79086084400,0.00000000000,1,G1,248.36300,1.85320,68.20980,17,4,1,4,12,104,0,0,0,0,47.92,105.25342584131,3.18373698990,152.35488856793
A-3691,(1R)-1-phenylethan-1-amine,"InChI=1S/C8H11N/c1-7(9)8-5-3-2-4-6-8/h2-7H,9H2,1H3",RQEUFEKYXDPUSK-UHFFFAOYSA-N,CC(N)c1ccccc1,-0.48138170830,0.01059464950,2,G3,121.18300,1.70630,39.04440,9,1,1,1,1,48,1,0,0,1,26.02,55.50117804530,2.84823405060,167.18232643414
A-3692,dipotassium zinc 2-[2-[bis(2-oxido-2-oxoethyl)amino]ethyl-(2-oxido-2-oxoethyl)amino]acetate,"InChI=1S/C10H16N2O8.2K.Zn/c13-7(14)3-11(4-8(15)16)1-2-12(5-9(17)18)6-10(19)20;;;/h1-6H2,(H,13,14)(H,15,16)(H,17,18)(H,19,20);;;/q;2*+1;+2/p-4",HALPFWFCTAYLEL-UHFFFAOYSA-J,[K+].[K+].[Zn++].[O-]C(=O)CN(CCN(CC([O-])=O)CC([O-])=O)CC([O-])=O,0.23745820100,0.00000000000,1,G1,431.79800,-13.40450,52.90800,23,10,0,13,11,114,0,0,0,0,167.00,230.09487824005,-0.00000060167,331.05724414428
A-3694,2-[(butylcarbamoyl)oxy]ethyl prop-2-enoate,"InChI=1S/C10H17NO4/c1-3-5-6-11-10(13)15-8-7-14-9(12)4-2/h4H,2-3,5-8H2,1H3,(H,11,13)",FLKHVLRENDBIDB-UHFFFAOYSA-N,CCCCNC(=O)OCCOC(=O)C=C,-1.63484059690,0.00000000000,1,G1,215.24900,1.24190,55.41470,15,4,1,5,7,86,0,0,0,0,64.63,89.43412386792,3.30694377019,215.46792796388
A-3696,(4-chlorophenyl)hydrazine,"InChI=1S/C6H7ClN2.ClH/c7-5-1-3-6(9-8)4-2-5;/h1-4,9H,8H2;1H",YQVZREHUWCCHHX-UHFFFAOYSA-N,[H+].[Cl-].NNc1ccc(Cl)cc1,-1.56366546620,0.00000000000,1,G1,179.05000,-1.25790,40.37410,10,2,2,4,1,56,1,0,0,1,38.05,72.23244986928,0.00000000000,190.27870077930
A-3700,"3,5-dimethylaniline","InChI=1S/C8H11N/c1-6-3-7(2)5-8(9)4-6/h3-5H,9H2,1-2H3",MKARNSWMMBGSHX-UHFFFAOYSA-N,Cc1cc(C)cc(N)c1,-1.40220046230,0.00000000000,1,G1,121.18300,1.88564,40.32840,9,1,1,1,0,48,1,0,0,1,26.02,55.50117804530,3.16567030992,165.32984016149
A-3701,Sodium; cobalt(3+); 1-[(2-oxido-5-sulfamoylphenyl)diazenyl]naphthalen-2-olate,"InChI=1S/2C16H13N3O4S.Co.Na/c2*17-24(22,23)11-6-8-14(20)13(9-11)18-19-16-12-4-2-1-3-10(12)5-7-15(16)21;;/h2*1-9,20-21H,(H2,17,22,23);;/q;;+3;+1/p-4",PHQDZULYJVQNFM-UHFFFAOYSA-J,[Na+].[Co+3].N[S](=O)(=O)c1ccc([O-])c(c1)N=Nc2c([O-])ccc3ccccc23.N[S](=O)(=O)c4ccc([O-])c(c4)N=Nc5c([O-])ccc6ccccc56,-2.20220384820,0.00000000000,1,G1,764.61900,1.10110,169.66240,50,12,2,18,6,250,6,0,0,6,262.00,317.97710293548,0.00000026000,2311.07586403291
A-3702,"1,3,3-trimethyl-5-oxocyclohexane-1-carbonitrile","InChI=1S/C10H15NO/c1-9(2)4-8(12)5-10(3,6-9)7-11/h4-6H2,1-3H3",JJDFVIDVSCYKDS-UHFFFAOYSA-N,CC1(C)CC(=O)CC(C)(C1)C#N,-1.54049772040,0.00673726970,2,G3,165.23600,2.29548,46.35900,12,2,0,2,0,66,0,1,1,1,40.86,73.57200068538,2.85536138667,249.05441917228
A-3703,4-(4-chlorophenyl)piperidin-4-ol,"InChI=1S/C11H14ClNO.ClH/c12-10-3-1-9(2-4-10)11(14)5-7-13-8-6-11;/h1-4,13-14H,5-8H2;1H",PXAJMBHRLGKPQV-UHFFFAOYSA-N,[H+].[Cl-].OC1(CCNCC1)c2ccc(Cl)cc2,-1.72077753130,0.00000000000,1,G1,248.15300,-0.97250,58.56450,15,2,2,4,1,84,1,1,1,2,32.26,102.53553632268,0.00000112500,312.26553064527
A-3706,amino(phenyl)acetic acid,"InChI=1S/C8H9NO2/c9-7(8(10)11)6-4-2-1-3-5-6/h1-5,7H,9H2,(H,10,11)/t7-/m1/s1",ZGUNAGUHMKGQNY-SSDOTTSWSA-N,[NH3+][C@@H](C([O-])=O)c1ccccc1,-1.50827840570,0.00000000000,1,G1,151.16500,-1.28050,37.07810,11,2,1,3,2,58,1,0,0,1,67.77,64.45693389754,2.85117789016,245.52878773918
A-3708,octan-1-amine dibutyl sulfanylphosphonate,"InChI=1S/C8H19N.C8H19O3PS/c1-2-3-4-5-6-7-8-9;1-3-5-7-10-12(9,13)11-8-6-4-2/h2-9H2,1H3;3-8H2,1-2H3,(H,9,13)",IVMOXNPAUDFORG-UHFFFAOYSA-N,CCCCCCCCN.CCCCO[P](S)(=O)OCCCC,-1.87969730240,0.00773171330,2,G3,355.52500,5.96330,100.74290,22,4,2,6,14,136,0,0,0,0,61.55,143.15278675620,0.00000000000,235.54541759659
A-3712,"4-amino-N-tert-butyl-5-oxo-3-(propan-2-yl)-4,5-dihydro-1H-1,2,4-triazole-1-carboxamide","InChI=1S/C10H19N5O2/c1-6(2)7-13-15(9(17)14(7)11)8(16)12-10(3,4)5/h6H,11H2,1-5H3,(H,12,16)",ORFPWVRKFLOQHK-UHFFFAOYSA-N,CC(C)C1=NN(C(=O)NC(C)(C)C)C(=O)N1N,-1.71884739740,0.00886183232,3,G5,241.29500,0.23820,64.40910,17,6,2,7,1,96,1,0,0,1,94.94,99.57072606012,3.12370949523,477.86618958429
A-3713,4-(4-hydroxyphenyl)butan-2-one,"InChI=1S/C10H12O2/c1-8(11)2-3-9-4-6-10(12)7-5-9/h4-7,12H,2-3H2,1H3",NJGBTKGETPDVIK-UHFFFAOYSA-N,CC(=O)CCc1ccc(O)cc1,-1.55204094130,0.00000000000,1,G1,164.20400,1.91380,47.10880,12,2,1,2,3,64,1,0,0,1,37.30,71.84692742932,2.52988907429,261.67199782618