ID,Name,InChI,InChIKey,SMILES,Solubility,SD,Ocurrences,Group,MolWt,MolLogP,MolMR,HeavyAtomCount,NumHAcceptors,NumHDonors,NumHeteroatoms,NumRotatableBonds,NumValenceElectrons,NumAromaticRings,NumSaturatedRings,NumAliphaticRings,RingCount,TPSA,LabuteASA,BalabanJ,BertzCT
A-673,methyl 2-[3-(acetyloxy)-2-pentylcyclopent-2-en-1-yl]acetate,"InChI=1S/C15H24O4/c1-4-5-6-7-13-12(10-15(17)18-3)8-9-14(13)19-11(2)16/h12H,4-10H2,1-3H3",IVEVYZAZHQVESM-UHFFFAOYSA-N,CCCCCC1=C(CCC1CC(=O)OC)OC(C)=O,-3.72198867240,0.00000000000,1,G1,268.35300,3.35700,72.29100,19,4,0,4,7,108,0,0,1,1,52.60,114.70314110277,2.71581559828,357.15707500745
A-674,4-ethenylcyclohex-1-ene,"InChI=1S/C8H12/c1-2-8-6-4-3-5-7-8/h2-4,8H,1,5-7H2",BBDKZWKEPDTENS-UHFFFAOYSA-N,C=CC1CCC=CC1,-3.33519303070,0.00000000000,1,G1,108.18400,2.52870,36.67800,8,0,0,0,1,44,0,0,1,1,0.00,50.90880861071,2.37141579550,100.60593781761
A-675,"5-hydroxy-2-(3-hydroxy-4-methoxyphenyl)-4-oxo-3,4-dihydro-2H-chromen-7-yl 6-O-(6-deoxy-alpha-L-mannopyranosyl)-beta-D-glucopyranoside","InChI=1S/C28H34O15/c1-10-21(32)23(34)25(36)27(40-10)39-9-19-22(33)24(35)26(37)28(43-19)41-12-6-14(30)20-15(31)8-17(42-18(20)7-12)11-3-4-16(38-2)13(29)5-11/h3-7,10,17,19,21-30,32-37H,8-9H2,1-2H3/t10-,17-,19+,21-,22+,23+,24-,25+,26+,27+,28+/m0/s1",QUQPHWDTPGMPEX-QJBIFVCTSA-N,COc1ccc(cc1O)[C@@H]2CC(=O)c3c(O)cc(O[C@@H]4O[C@H](CO[C@@H]5O[C@@H](C)[C@H](O)[C@@H](O)[C@H]5O)[C@@H](O)[C@H](O)[C@H]4O)cc3O2,-5.01048564550,0.12084848965,6,G5,610.56500,-1.15660,140.69890,43,15,8,15,7,236,2,2,3,5,234.29,244.50674118997,1.30399657771,1319.30386838130
A-676,2-[(2-hydroxyethyl)[(9E)-octadec-9-en-1-yl]amino]ethan-1-ol,"InChI=1S/C22H45NO2/c1-2-3-4-5-6-7-8-9-10-11-12-13-14-15-16-17-18-23(19-21-24)20-22-25/h9-10,24-25H,2-8,11-22H2,1H3/b10-9+",BITAPBDLHJQAID-MDZDMXLPSA-N,CCCCCCCC/C=C/CCCCCCCCN(CCO)CCO,-4.78011828970,0.00000000000,1,G1,355.60700,5.31050,110.06360,25,3,2,3,20,150,0,0,0,0,43.70,157.06173357257,3.23252054394,262.75283425117
A-677,"tributyl benzene-1,2,4-tricarboxylate","InChI=1S/C21H30O6/c1-4-7-12-25-19(22)16-10-11-17(20(23)26-13-8-5-2)18(15-16)21(24)27-14-9-6-3/h10-11,15H,4-9,12-14H2,1-3H3",RJIFVNWOLLIBJV-UHFFFAOYSA-N,CCCCOC(=O)c1ccc(C(=O)OCCCC)c(c1)C(=O)OCCCC,-4.80717371100,0.00000000000,1,G1,378.46500,4.55730,102.01350,27,6,0,6,12,150,1,0,0,1,78.90,160.73073682410,3.00872653110,623.09788904948
A-679,"1-(butan-2-yl)-4-{4-[4-(4-hydroxyphenyl)piperazin-1-yl]phenyl}-4,5-dihydro-1H-1,2,4-triazol-5-one","InChI=1S/C22H27N5O2/c1-3-17(2)27-22(29)26(16-23-27)20-6-4-18(5-7-20)24-12-14-25(15-13-24)19-8-10-21(28)11-9-19/h4-11,16-17,28H,3,12-15H2,1-2H3",FFAQILVGBAELHN-UHFFFAOYSA-N,CCC(C)N1N=CN(C1=O)c2ccc(cc2)N3CCN(CC3)c4ccc(O)cc4,-4.82852195640,0.00000000000,1,G1,393.49100,3.03720,115.35880,29,7,1,7,5,152,3,1,1,4,66.53,169.97157341042,1.43314625558,998.93193201695
A-680,3-(trimethoxysilyl)propyl prop-2-enoate,"InChI=1S/C9H18O5Si/c1-5-9(10)14-7-6-8-15(11-2,12-3)13-4/h5H,1,6-8H2,2-4H3",KBQVDAIIQCXKPI-UHFFFAOYSA-N,CO[Si](CCCOC(=O)C=C)(OC)OC,-4.60638877870,0.00000000000,1,G1,234.32400,0.98380,57.36100,15,5,0,6,8,88,0,0,0,0,53.99,91.33586076099,3.80877130563,194.41472216026
A-683,undecan-1-ol,"InChI=1S/C11H24O/c1-2-3-4-5-6-7-8-9-10-11-12/h12H,2-11H2,1H3",KJIOQYGWTQBHNH-UHFFFAOYSA-N,CCCCCCCCCCCO,-4.48044066760,0.00000000000,1,G1,172.31200,3.50950,54.31280,12,1,1,1,9,74,0,0,0,0,20.23,77.18290592399,2.72724281292,61.40436410139
A-686,barium(+2) cation; dioxidoboron,InChI=1S/BO2.Ba/c2-1-3;/q-2;+2,MLPBXDBEWJPBBI-UHFFFAOYSA-N,[Ba++].[O-][B][O-],-2.34073351910,0.00000000000,1,G1,180.13800,-3.13960,11.50800,4,2,0,4,0,17,0,0,0,0,46.12,65.59601478398,0.00000000000,6.00000000000
A-689,"(1S,2S,4S)-1,7,7-trimethylbicyclo[2.2.1]heptan-2-yl prop-2-enoate","InChI=1S/C13H20O2/c1-5-11(14)15-10-8-9-6-7-13(10,4)12(9,2)3/h5,9-10H,1,6-8H2,2-4H3/t9-,10?,13+/m0/s1",PSGCQDPCAWOCSH-BOURZNODSA-N,CC1(C)[C@H]2CC[C@]1(C)C(C2)OC(=O)C=C,-4.58309245520,0.28053314530,2,G3,208.30100,2.93040,59.30600,15,2,0,2,2,84,0,2,2,2,26.30,91.69235839090,2.18606294457,305.65781384228
A-690,"2-quinolin-2-yl-1H-indene-1,3(2H)-dione","InChI=1S/C18H11NO2/c20-17-12-6-2-3-7-13(12)18(21)16(17)15-10-9-11-5-1-4-8-14(11)19-15/h1-10,16H",IZMJMCDDWKSTTK-UHFFFAOYSA-N,O=C1C(c2ccc3ccccc3n2)C(=O)c4ccccc14,-4.70118612650,0.75377624935,2,G2,273.29100,3.39760,79.58700,21,3,0,3,1,100,3,0,1,4,47.03,120.80184922799,1.86496370731,863.36873176784
A-691,tert-butoxy 2-ethylhexyl carbonate,"InChI=1S/C13H26O4/c1-6-8-9-11(7-2)10-15-12(14)16-17-13(3,4)5/h11H,6-10H2,1-5H3",BRQMAAFGEXNUOL-UHFFFAOYSA-N,CCCCC(CC)COC(=O)OOC(C)(C)C,-4.65995851260,0.00000000000,1,G1,246.34700,4.08610,66.57700,17,4,0,4,7,102,0,0,0,0,44.76,104.55000950489,3.73223276447,207.95522693972
A-692,dicyclopentyldimethoxysilane,"InChI=1S/C12H24O2Si/c1-13-15(14-2,11-7-3-4-8-11)12-9-5-6-10-12/h11-12H,3-10H2,1-2H3",JWCYDYZLEAQGJJ-UHFFFAOYSA-N,CO[Si](OC)(C1CCCC1)C2CCCC2,-4.63279967870,0.52611980905,2,G2,228.40800,3.60980,64.20800,15,2,0,3,4,88,0,2,2,2,18.46,94.59668674134,2.12501794196,173.79880014551
A-693,"3,3,5-trimethylcyclohexyl 2-methylprop-2-enoate","InChI=1S/C13H22O2/c1-9(2)12(14)15-11-6-10(3)7-13(4,5)8-11/h10-11H,1,6-8H2,2-5H3",DABQKEQFLJIRHU-UHFFFAOYSA-N,CC1CC(CC(C)(C)C1)OC(=O)C(C)=C,-4.59859850870,0.00000000000,1,G1,210.31700,3.32050,61.49000,15,2,0,2,2,86,0,1,1,1,26.30,92.69818954443,2.55714745959,265.70951823352
A-697,"Butanal, reaction products with aniline","InChI=1S/C6H7N.C4H8O/c7-6-4-2-1-3-5-6;1-2-3-4-5/h1-5H,7H2;4H,2-3H2,1H3",SRGBNANKQPZXFZ-UHFFFAOYSA-N,CCCC=O.Nc1ccccc1,-4.50210132950,0.00000000000,1,G1,165.23600,2.25420,51.82640,12,2,1,2,2,66,1,0,0,1,43.09,73.39841552767,0.00000021686,196.25336980724
A-698,zinc(2+) ion didodecanoate,"InChI=1S/2C12H24O2.Zn/c2*1-2-3-4-5-6-7-8-9-10-11-12(13)14;/h2*2-11H2,1H3,(H,13,14);/q;;+2/p-2",GPYYEEJOMCKTPR-UHFFFAOYSA-L,[Zn++].CCCCCCCCCCCC([O-])=O.CCCCCCCCCCCC([O-])=O,-4.95053148420,0.00000000000,1,G1,464.01800,5.31190,113.70200,29,4,0,5,20,168,0,0,0,0,80.26,192.93359055953,-0.00000045067,302.84234884139
A-699,"3-methyl-N-(3-{3-methyl-N-[2-(3-methyl-N-{2-[2-(2-methylheptadecyl)-4,5-dihydro-1H-imidazol-1-yl]ethyl}octadecanamido)ethyl]octadecanamido}propyl)octadecanamide; 3-methyl-N-(3-{[2-(3-methyl-N-{2-[2-(2-methylheptadecyl)-4,5-dihydro-1H-imidazol-1-yl]ethyl}octadecanamido)ethyl]amino}propyl)octadecanamide; 3-methyl-N-(3-{[2-({2-[2-(2-methylheptadecyl)-4,5-dihydro-1H-imidazol-1-yl]ethyl}amino)ethyl]amino}propyl)octadecanamide; 3-methyl-N-[3-({2-[(2-{[2-(3-methyloctadecanamido)ethyl]amino}ethyl)amino]ethyl}amino)propyl]octadecanamide; 3-methyl-N-{2-[(2-{3-methyl-N-[2-(piperazin-1-yl)ethyl]octadecanamido}ethyl)amino]ethyl}octadecanamide; 3-methyl-N-{2-[2-(2-methylheptadecyl)-4,5-dihydro-1H-imidazol-1-yl]ethyl}-N-[2-(piperazin-1-yl)ethyl]octadecanamide; 3-methyl-N-{3-[(2-{3-methyl-N-[2-({2-[(4-methylnonadec-1-en-2-yl)amino]ethyl}amino)ethyl]octadecanamido}ethyl)amino]propyl}octadecanamide","InChI=1S/C18H36O2.C8H23N5/c1-2-3-4-5-6-7-8-9-10-11-12-13-14-15-16-17-18(19)20;9-1-3-11-5-7-13-8-6-12-4-2-10/h2-17H2,1H3,(H,19,20);11-13H,1-10H2",CDCSRZWJRXOXLQ-UHFFFAOYSA-N,CCCCCCCCCCCCCCCCCC(O)=O.NCCNCCNCCNCCN,-4.96041944890,0.00000000000,1,G1,473.79100,4.00510,143.89970,33,6,6,7,26,200,0,0,0,0,125.43,205.15375883836,0.00000000000,349.57394467038
A-701,(3Z)-hex-3-en-1-yl 2-hydroxybenzoate,"InChI=1S/C13H16O3/c1-2-3-4-7-10-16-13(15)11-8-5-6-9-12(11)14/h3-6,8-9,14H,2,7,10H2,1H3/b4-3+",IEPWIPZLLIOZLU-ONEGZZNKSA-N,CC/C=C/CCOC(=O)c1ccccc1O,-4.64398140410,0.00000000000,1,G1,220.26800,2.90530,62.43730,16,3,1,3,5,86,1,0,0,1,46.53,95.36569596984,2.41441673414,369.19538535705
A-705,"(2S,5R)-5-methyl-2-(propan-2-yl)cyclohexan-1-one","InChI=1S/C10H18O/c1-7(2)9-5-4-8(3)6-10(9)11/h7-9H,4-6H2,1-3H3/t8-,9+/m1/s1",NFLGAXVYCFJBMK-BDAKNGLRSA-N,CC(C)[C@@H]1CC[C@@H](C)CC1=O,-2.49187723050,0.10505924042,3,G5,154.25300,2.64770,46.35000,11,1,0,1,1,64,0,1,1,1,17.07,69.17942100391,2.50769391643,148.95176690806
A-706,4-(methoxycarbonyl)-3-nitrobenzoic acid,"InChI=1S/C9H7NO6/c1-16-9(13)6-3-2-5(8(11)12)4-7(6)10(14)15/h2-4H,1H3,(H,11,12)",MIIADZYPHVTLPR-UHFFFAOYSA-N,COC(=O)c1ccc(cc1[N+]([O-])=O)C(O)=O,-2.65700184810,0.00000000000,1,G1,225.15600,1.07960,51.39520,16,5,1,7,3,84,1,0,0,1,106.74,89.41002836698,3.35771253076,467.06705661544
A-708,"1,3,5-trimethylbenzene","InChI=1S/C9H12/c1-7-4-8(2)6-9(3)5-7/h4-6H,1-3H3",AUHZEENZYGFFBQ-UHFFFAOYSA-N,Cc1cc(C)cc(C)c1,-3.38265705900,0.00709115230,2,G3,120.19500,2.61186,40.65300,9,0,0,0,0,48,1,0,0,1,0.00,56.52622946269,3.16567030992,160.80051514851
A-709,2-methyl-6-methylideneoct-7-en-2-yl acetate,"InChI=1S/C12H20O2/c1-6-10(2)8-7-9-12(4,5)14-11(3)13/h6H,1-2,7-9H2,3-5H3",DCXXKSXLKWAZNO-UHFFFAOYSA-N,CC(=O)OC(C)(C)CCCC(=C)C=C,-3.59741649850,0.18766769520,2,G3,196.29000,3.24060,59.03300,14,2,0,2,6,80,0,0,0,0,26.30,86.64947555137,3.80891929656,226.47622838889
A-713,2-chloro-1-methyl-4-nitrobenzene,"InChI=1S/C7H6ClNO2/c1-5-2-3-6(9(10)11)4-7(5)8/h2-4H,1H3",LLYXJBROWQDVMI-UHFFFAOYSA-N,Cc1ccc(cc1Cl)[N+]([O-])=O,-3.54427817680,0.00000000000,1,G1,171.58300,2.55662,42.84340,11,2,0,4,1,58,1,0,0,1,43.14,68.75258718328,3.15154966831,298.49208977639
A-714,"N,N,N-trimethyloctadecan-1-aminium chloride","InChI=1S/C21H46N.ClH/c1-5-6-7-8-9-10-11-12-13-14-15-16-17-18-19-20-21-22(2,3)4;/h5-21H2,1-4H3;1H/q+1;/p-1",VBIIFPGSPJYLRR-UHFFFAOYSA-M,[Cl-].CCCCCCCCCCCCCCCCCC[N+](C)(C)C,-3.85145678810,0.00000000000,1,G1,348.05900,3.95810,102.44540,23,0,0,2,17,142,0,0,0,0,0.00,154.16099172511,0.00000000000,210.37733408525
A-718,"N,N-dipropylpropan-1-amine","InChI=1S/C9H21N/c1-4-7-10(8-5-2)9-6-3/h4-9H2,1-3H3",YFTHZRPMJXBUME-UHFFFAOYSA-N,CCCN(CCC)CCC,-2.47222025520,0.09927617582,3,G5,143.27400,2.51840,47.31300,10,1,0,1,6,62,0,0,0,0,3.24,65.41862161321,3.29508211630,47.48394345536
A-719,ammonia,InChI=1S/H3N/h1H3,QGZKDVFQNNGYKY-UHFFFAOYSA-N,N,1.45180688930,0.02916546377,4,G5,17.03100,0.16200,5.02210,1,1,1,1,0,8,0,0,0,0,35.00,7.50422812385,0.00000000000,0.00000000000
A-722,2-oxo-N-{6-[(2-oxoazepane-1-carbonyl)amino]hexyl}azepane-1-carboxamide,"InChI=1S/C20H34N4O4/c25-17-11-5-3-9-15-23(17)19(27)21-13-7-1-2-8-14-22-20(28)24-16-10-4-6-12-18(24)26/h1-16H2,(H,21,27)(H,22,28)",YOVRNJUIHVNXCB-UHFFFAOYSA-N,O=C1CCCCCN1C(=O)NCCCCCCNC(=O)N2CCCCCC2=O,-3.90640065610,0.00000000000,1,G1,394.51600,2.77120,105.62740,28,4,2,8,7,158,0,2,2,2,98.82,166.92696900210,1.49807673652,504.32377598910
A-724,3-methylbutyl 3-methylbutanoate,"InChI=1S/C10H20O2/c1-8(2)5-6-12-10(11)7-9(3)4/h8-9H,5-7H2,1-4H3",XINCECQTMHSORG-UHFFFAOYSA-N,CC(C)CCOC(=O)CC(C)C,-3.55405953530,0.00000000000,1,G1,172.26800,2.62180,49.86900,12,2,0,2,5,72,0,0,0,0,26.30,75.29879738695,3.31978086066,127.80026905978
A-725,2-propylheptan-1-ol,"InChI=1S/C10H22O/c1-3-5-6-8-10(9-11)7-4-2/h10-11H,3-9H2,1-2H3",YLQLIQIAXYRMDL-UHFFFAOYSA-N,CCCCCC(CO)CCC,-3.51819852320,0.15767798107,4,G5,158.28500,2.97530,49.62580,11,1,1,1,7,68,0,0,0,0,20.23,70.81796380960,3.20389848222,71.27302875388
A-726,4-[2-(4-aminophenyl)ethyl]aniline,"InChI=1S/C14H16N2/c15-13-7-3-11(4-8-13)1-2-12-5-9-14(16)10-6-12/h3-10H,1-2,15-16H2",UHNUHZHQLCGZDA-UHFFFAOYSA-N,Nc1ccc(CCc2ccc(N)cc2)cc1,-3.64570057410,0.00000000000,1,G1,212.29600,2.63620,69.11680,16,2,2,2,3,82,2,0,0,2,52.04,95.89816294838,1.96601463458,397.66648704843
A-728,methyl nicotinate,"InChI=1S/C7H7NO2/c1-10-7(9)6-3-2-4-8-5-6/h2-5H,1H3",YNBADRVTZLEFNH-UHFFFAOYSA-N,COC(=O)c1cccnc1,-0.45955085880,0.00000000000,1,G1,137.13800,0.86820,35.57650,10,3,0,3,1,52,1,0,0,1,39.19,58.65600265879,2.85262792882,220.30753299615
A-731,"calcium 2,3-dihydroxybutanedioate","InChI=1S/C4H6O6.Ca/c5-1(3(7)8)2(6)4(9)10;/h1-2,5-6H,(H,7,8)(H,9,10);/q;+2/t1-,2-;/m1./s1",GUPPESBEIQALOS-ZVGUSBNCSA-N,[Ca++].O[C@H]([C@@H](O)C(O)=O)C(O)=O,-2.60243469430,0.76584343006,3,G4,190.16400,-2.50340,33.03920,11,4,4,7,3,58,0,0,0,0,115.06,91.44982457512,0.00000000000,138.66127285261
A-738,4-tert-butylbenzoic acid,"InChI=1S/C11H14O2/c1-11(2,3)9-6-4-8(5-7-9)10(12)13/h4-7H,1-3H3,(H,12,13)",KDVYCTOWXSLNNI-UHFFFAOYSA-N,CC(C)(C)c1ccc(cc1)C(O)=O,-3.57796233670,1.20104477422,3,G4,178.23100,2.68230,52.10130,13,1,1,2,1,70,1,0,0,1,37.30,78.21186954372,3.00874082892,303.85731817701
A-740,chlorocopper,InChI=1S/ClH.Cu/h1H;/q;+1/p-1,OXBLHERUFWYNTN-UHFFFAOYSA-M,[Cl-].[Cu+],-3.32353294980,0.00000000000,1,G1,98.99900,-2.99850,0.00000,2,0,0,2,0,18,0,0,0,0,0.00,30.11719128467,0.00000000000,2.00000000000
A-741,molybdenum nickel tetraoxide,InChI=1S/Mo.Ni.4O/q2*+2;4*-1,AXSAYZUZQSGYFU-UHFFFAOYSA-N,[Ni++].[O-][Mo++]([O-])([O-])[O-],-1.67206806230,0.00000000000,1,G1,218.62900,-4.76100,0.00000,6,4,0,6,0,40,0,0,0,0,92.24,49.37566403742,0.00000000000,23.01955000865
A-742,8-aminonaphthalene-2-sulfonic acid,"InChI=1S/C10H9NO3S/c11-10-3-1-2-7-4-5-8(6-9(7)10)15(12,13)14/h1-6H,11H2,(H,12,13,14)",QEZZCWMQXHXAFG-UHFFFAOYSA-N,Nc1cccc2ccc(cc12)[S](O)(=O)=O,-1.68227932300,0.00000000000,1,G1,223.25300,1.66870,58.17500,15,3,2,5,1,78,2,0,0,2,80.39,87.08159435829,2.81465500930,619.60014755309
A-743,"1,1,1,2,2-pentafluoroethane","InChI=1S/C2HF5/c3-1(4)2(5,6)7/h1H",GTLACDSXYULKMZ-UHFFFAOYSA-N,FC(F)C(F)(F)F,-1.41649579070,0.03640411520,2,G3,120.02000,1.81380,12.05900,7,0,0,5,0,44,0,0,0,0,0.00,35.93187015686,3.54119696508,51.59071900160
A-744,"2,3-dimethylphenol","InChI=1S/C8H10O/c1-6-4-3-5-8(9)7(6)2/h3-5,9H,1-2H3",QWBBPBRQALCEIZ-UHFFFAOYSA-N,Cc1cccc(O)c1C,-1.42419607760,0.03418264065,2,G3,122.16700,2.00904,37.58080,9,1,1,1,0,48,1,0,0,1,20.23,54.95552110049,3.24783473374,195.55766205434
A-746,5-chloro-7-iodoquinolin-8-ol,"InChI=1S/C9H5ClINO/c10-6-4-7(11)9(13)8-5(6)2-1-3-12-8/h1-4,13H",QCDFBFJGMNKBDO-UHFFFAOYSA-N,Oc1c(I)cc(Cl)c2cccnc12,-1.82225622610,0.00000000000,1,G1,305.50200,3.19840,61.13480,13,2,1,4,0,66,2,0,0,2,33.12,93.69205373230,2.96687293392,472.36650952005
A-749,tert-butyl 2-ethylhexaneperoxoate,"InChI=1S/C12H24O3/c1-6-8-9-10(7-2)11(13)14-15-12(3,4)5/h10H,6-9H2,1-5H3",WYKYCHHWIJXDAO-UHFFFAOYSA-N,CCCCC(CC)C(=O)OOC(C)(C)C,-3.66951769090,0.00000000000,1,G1,216.32100,3.47610,60.23600,15,3,0,3,6,90,0,0,0,0,35.53,93.07152216099,3.93505994171,181.79647817569
A-750,"2,6,6-trimethylbicyclo[3.1.1]heptane-3-carbaldehyde","InChI=1S/C11H18O/c1-7-8(6-12)4-9-5-10(7)11(9,2)3/h6-10H,4-5H2,1-3H3",VUNCLQCPKWLBRY-UHFFFAOYSA-N,CC1C(CC2CC1C2(C)C)C=O,-3.55804039290,0.00000000000,1,G1,166.26400,2.50360,48.71300,12,1,0,1,1,68,0,3,3,3,17.07,74.53853196478,2.16348466767,207.04965218227
A-752,2-methyl-4-phenylbutan-2-ol,"InChI=1S/C11H16O/c1-11(2,12)9-8-10-6-4-3-5-7-10/h3-7,12H,8-9H2,1-2H3",YXVSKJDFNJFXAJ-UHFFFAOYSA-N,CC(C)(O)CCc1ccccc1,-1.55563967700,0.00000000000,1,G1,164.24800,2.39010,51.06080,12,1,1,1,3,66,1,0,0,1,20.23,74.05034744368,2.44199723854,220.50947032352
A-756,4-nitrophenyl acetate,"InChI=1S/C8H7NO4/c1-6(10)13-8-4-2-7(3-5-8)9(11)12/h2-5H,1H3",QAUUDNIGJSLPSX-UHFFFAOYSA-N,CC(=O)Oc1ccc(cc1)[N+]([O-])=O,-2.59925682520,0.02962841260,2,G3,181.14700,1.52010,44.40540,13,4,0,5,2,68,1,0,0,1,69.44,74.08933040034,2.80945419416,330.50219273970
A-758,1-(1-benzofuran-2-yl)ethan-1-one,"InChI=1S/C10H8O2/c1-7(11)10-6-8-4-2-3-5-9(8)12-10/h2-6H,1H3",YUTFQTAITWWGFH-UHFFFAOYSA-N,CC(=O)c1oc2ccccc2c1,-2.54848839650,0.00000000000,1,G1,160.17200,2.63540,46.21850,12,2,0,2,1,60,2,0,0,2,30.21,69.79880324415,2.69725406098,393.08612940114
A-760,2-amino-6-chloro-4-nitrophenol,"InChI=1S/C6H5ClN2O3.ClH/c7-4-1-3(9(11)12)2-5(8)6(4)10;/h1-2,10H,8H2;1H",HXKQPFKBBNRPEK-UHFFFAOYSA-N,[Cl-].[NH3+]c1cc(cc(Cl)c1O)[N+]([O-])=O,-2.69902983630,0.00000000000,1,G1,225.03100,-2.16880,42.31930,13,3,2,7,1,72,1,0,0,1,91.01,84.67486277064,0.00000144000,319.64640347553
A-761,1-[(2-tert-butylcyclohexyl)oxy]butan-2-ol,"InChI=1S/C14H28O2/c1-5-11(15)10-16-13-9-7-6-8-12(13)14(2,3)4/h11-13,15H,5-10H2,1-4H3",GQBVHGLNSHPKPG-UHFFFAOYSA-N,CCC(O)COC1CCCCC1C(C)(C)C,-3.69873426200,0.00000000000,1,G1,228.37600,3.37880,67.45080,16,2,1,2,4,96,0,1,1,1,29.46,100.38544634316,2.47407327284,195.40224730691
A-770,"menthane, monohydroperoxy derivative","InChI=1S/C10H20O2/c1-7(2)9-5-4-8(3)6-10(9)12-11/h7-11H,4-6H2,1-3H3",OZTWDFWAMMUDHQ-UHFFFAOYSA-N,CC(C)C1CCC(C)CC1OO,-2.58882164160,0.00000000000,1,G1,172.26800,2.93680,48.84480,12,2,1,2,2,72,0,1,1,1,29.46,74.85497320131,2.50118098437,133.80026905978
A-772,"2-methylpropyl 3,5-diamino-4-chlorobenzoate","InChI=1S/C11H15ClN2O2/c1-6(2)5-16-11(15)7-3-8(13)10(12)9(14)4-7/h3-4,6H,5,13-14H2,1-2H3",KHUIRIRTZCOEMK-UHFFFAOYSA-N,CC(C)COC(=O)c1cc(N)c(Cl)c(N)c1,-2.73828482400,0.00536909940,2,G3,242.70600,2.31720,65.39730,16,4,2,5,3,88,1,0,0,1,78.34,99.51422864194,2.84328033168,381.96619044900
A-773,1-benzoylcyclohexan-1-ol,"InChI=1S/C13H16O2/c14-12(11-7-3-1-4-8-11)13(15)9-5-2-6-10-13/h1,3-4,7-8,15H,2,5-6,9-10H2",QNODIIQQMGDSEF-UHFFFAOYSA-N,OC1(CCCCC1)C(=O)c2ccccc2,-2.66478019350,0.00000000000,1,G1,204.26900,2.56450,58.80730,15,2,1,2,2,80,1,1,1,2,37.30,89.93592261898,2.19738922395,336.81340252969
A-775,benzylhydrazine dihydrochloride,"InChI=1S/C7H10N2.2ClH/c8-9-6-7-4-2-1-3-5-7;;/h1-5,9H,6,8H2;2*1H",MSJHOJKVMMEMNX-UHFFFAOYSA-N,[H+].[H+].[Cl-].[Cl-].NNCc1ccccc1,-1.64678901060,0.00000000000,1,G1,195.09300,-5.11710,39.69310,11,2,2,4,2,64,1,0,0,1,38.05,81.93201737884,-0.00000010125,175.40332763407
A-777,2-ethoxy-3-[[4-[2-(2H-tetrazol-5-yl)phenyl]phenyl]methyl]benzimidazole-4-carboxylic acid,"InChI=1S/C24H20N6O3/c1-2-33-24-25-20-9-5-8-19(23(31)32)21(20)30(24)14-15-10-12-16(13-11-15)17-6-3-4-7-18(17)22-26-28-29-27-22/h3-13H,2,14H2,1H3,(H,31,32)(H,26,27,28,29)",HTQMVQVXFRQIKW-UHFFFAOYSA-N,CCOc1nc2cccc(C(O)=O)c2n1Cc3ccc(cc3)c4ccccc4c5n[nH]nn5,-6.49778139680,0.00000000000,1,G1,440.46300,4.02860,122.01300,33,7,2,9,7,164,5,0,0,5,118.81,188.22566476638,1.52513778067,1424.91377943025
A-779,"2,4,6-trichloro-1,3,5-triazine",InChI=1S/C3Cl3N3/c4-1-7-2(5)9-3(6)8-1,MGNCLNQXLYJVJD-UHFFFAOYSA-N,Clc1nc(Cl)nc(Cl)n1,-2.62233885640,0.05726798815,2,G3,184.41300,1.83180,34.85700,9,3,0,6,0,48,1,0,0,1,38.67,66.00014574298,3.16567030992,175.06517765500
A-780,2-tert-butyl-6-(3-tert-butyl-2-hydroxy-5-methoxyphenyl)-4-methoxyphenol,"InChI=1S/C22H30O4/c1-21(2,3)17-11-13(25-7)9-15(19(17)23)16-10-14(26-8)12-18(20(16)24)22(4,5)6/h9-12,23-24H,1-8H3",CBYWHFTZNVZQHV-UHFFFAOYSA-N,COc1cc(c(O)c(c1)C(C)(C)C)c2cc(OC)cc(c2O)C(C)(C)C,-6.77631125750,0.00000000000,1,G1,358.47800,5.37700,105.71160,26,4,2,4,3,142,2,0,0,2,58.92,155.95347643293,2.87718082613,738.85778985207
A-781,Tazobactam,"InChI=1S/C10H12N4O5S/c1-10(5-13-3-2-11-12-13)8(9(16)17)14-6(15)4-7(14)20(10,18)19/h2-3,7-8H,4-5H2,1H3,(H,16,17)/t7-,8+,10+/m1/s1",LPQZKKCYTLCDGQ-WEDXCCLWSA-N,C[C@]1(Cn2ccnn2)[C@@H](N3[C@@H](CC3=O)[S]1(=O)=O)C(O)=O,-1.83846167630,0.00000000000,1,G1,300.29600,-1.52320,64.02160,20,7,1,10,3,108,1,2,2,3,122.46,113.63712273820,2.09749868388,684.51093534054
A-784,N-methyl-N-phenylformamide,"InChI=1S/C8H9NO/c1-9(7-10)8-5-3-2-4-6-8/h2-7H,1H3",JIKUXBYRTXDNIY-UHFFFAOYSA-N,CN(C=O)c1ccccc1,-1.49478094670,0.00000000000,1,G1,135.16600,1.27920,40.90900,10,1,0,2,2,52,1,0,0,1,20.31,60.08264311854,2.84201501598,207.75739299456
A-787,"4-aminobenzene-1,3-disulfonic acid","InChI=1S/C6H7NO6S2/c7-5-2-1-4(14(8,9)10)3-6(5)15(11,12)13/h1-3H,7H2,(H,8,9,10)(H,11,12,13)",IMUUNYPYNWXUBO-UHFFFAOYSA-N,Nc1ccc(cc1[S](O)(=O)=O)[S](O)(=O)=O,-1.77009300250,0.00000000000,1,G1,253.25700,-0.23780,50.48360,15,5,3,9,2,84,1,0,0,1,134.76,86.02856583659,3.57365609535,588.04817629922
A-789,2-isopropyl-5-methylcyclohexanol,"InChI=1S/C10H20O/c1-7(2)9-5-4-8(3)6-10(9)11/h7-11H,4-6H2,1-3H3/t8-,9+,10+/m1/s1",NOOLISFMXDJSKH-UTLUCORTSA-N,CC(C)[C@@H]1CC[C@@H](C)C[C@@H]1O,-2.56040437740,0.00000000000,1,G1,156.26900,2.43950,47.34980,11,1,1,1,1,66,0,1,1,1,20.23,69.81213265607,2.43715926003,120.04118472439
A-790,4-methoxy-3-nitrobenzoic acid,"InChI=1S/C8H7NO5/c1-14-7-3-2-5(8(10)11)4-6(7)9(12)13/h2-4H,1H3,(H,10,11)",ANXBDAFDZSXOPQ-UHFFFAOYSA-N,COc1ccc(cc1[N+]([O-])=O)C(O)=O,-2.66131951430,0.00000000000,1,G1,197.14600,1.30160,46.60770,14,4,1,6,3,74,1,0,0,1,89.67,78.88356415254,3.27441444539,387.31807060083