ID,Name,InChI,InChIKey,SMILES,Solubility,SD,Ocurrences,Group,MolWt,MolLogP,MolMR,HeavyAtomCount,NumHAcceptors,NumHDonors,NumHeteroatoms,NumRotatableBonds,NumValenceElectrons,NumAromaticRings,NumSaturatedRings,NumAliphaticRings,RingCount,TPSA,LabuteASA,BalabanJ,BertzCT
A-2803,"(1E,19E)-10,11-dioctylicosa-1,19-diene-1,20-diamine","InChI=1S/C72H139N/c1-3-5-7-9-11-13-15-17-19-21-23-25-27-29-31-33-35-37-39-41-43-45-47-49-51-53-55-57-59-61-63-65-67-69-71-73-72-70-68-66-64-62-60-58-56-54-52-50-48-46-44-42-40-38-36-34-32-30-28-26-24-22-20-18-16-14-12-10-8-6-4-2/h23,25,29,31,42,44,48,50,73H,3-22,24,26-28,30,32-41,43,45-47,49,51-72H2,1-2H3/b25-23+,31-29+,44-42+,50-48+",PNJSUECMZCQDCC-ONBHPNORSA-N,CCCCCCCCCCCCCCCCCCCC\C=C\C\C=C\CCCCCCCCCCCNCCCCCCCCCCCCCCCCCCCC\C=C\C\C=C\CCCCCCCCCCC,-9.70710625520,0.00000000000,1,G1,1018.91100,26.24660,337.79770,73,1,1,1,66,432,0,0,0,0,12.03,463.44159120486,3.16332850448,1049.87913829798
A-2804,"1,2-bis(2-propylheptyl) benzene-1,2-dicarboxylate","InChI=1S/C28H46O4/c1-5-9-11-17-23(15-7-3)21-31-27(29)25-19-13-14-20-26(25)28(30)32-22-24(16-8-4)18-12-10-6-2/h13-14,19-20,23-24H,5-12,15-18,21-22H2,1-4H3",MTYUOIVEVPTXFX-UHFFFAOYSA-N,CCCCCC(CCC)COC(=O)c1ccccc1C(=O)OCC(CCC)CCCCC,-9.64998872920,0.00000000000,1,G1,446.67200,7.99340,132.08700,32,4,0,4,18,182,1,0,0,1,52.60,196.01026429532,2.69565924101,585.07447287308
A-2805,"2,2-dichloro-1-(3-methyl-2,3-dihydro-1,4-benzoxazin-4-yl)ethanone","InChI=1S/C11H11Cl2NO2/c1-7-6-16-9-5-3-2-4-8(9)14(7)11(15)10(12)13/h2-5,7,10H,6H2,1H3",PFJJMJDEVDLPNE-UHFFFAOYSA-N,CC1COc2ccccc2N1C(=O)C(Cl)Cl,-3.83539014870,0.13935492565,2,G3,260.12000,2.60420,64.37900,16,2,0,5,1,86,1,0,1,2,29.54,103.89171599147,2.40498432308,408.72596545332
A-2806,(4-fluorophenyl)(piperidin-4-yl)methanone hydrochloride,"InChI=1S/C12H14FNO.ClH/c13-11-3-1-9(2-4-11)12(15)10-5-7-14-8-6-10;/h1-4,10,14H,5-8H2;1H",GPKDBZQZPNOBGM-UHFFFAOYSA-N,[H+].[Cl-].Fc1ccc(cc1)C(=O)C2CCNCC2,0.58901956870,0.00000000000,1,G1,243.70900,-0.87550,57.43620,16,2,1,4,2,88,1,1,1,2,29.10,102.13003596097,0.00000128000,352.02819072184
A-2807,"1,3-dihydroxypropan-2-one","InChI=1S/C3H6O3/c4-1-3(6)2-5/h4-5H,1-2H2",RXKJFZQQPQGTFL-UHFFFAOYSA-N,OCC(=O)CO,1.01386421360,0.00000000000,1,G1,90.07800,-1.45990,19.17860,6,3,2,3,2,36,0,0,0,0,57.53,35.21912486106,2.98816088213,44.00000000000
A-2809,"disodium 4-[(E)-2-{2,4-dihydroxy-5-[(E)-2-(2-hydroxy-3,5-dinitrophenyl)diazen-1-yl]-3-[(E)-2-(4-nitrophenyl)diazen-1-yl]phenyl}diazen-1-yl]-5-hydroxynaphthalene-2,7-disulfonate","InChI=1S/C28H17N9O16S2.2Na/c38-23-10-17(55(51,52)53)6-12-5-16(54(48,49)50)9-18(24(12)23)30-32-20-11-21(33-31-19-7-15(36(44)45)8-22(26(19)39)37(46)47)28(41)25(27(20)40)34-29-13-1-3-14(4-2-13)35(42)43;;/h1-11,38-41H,(H,48,49,50)(H,51,52,53);;/q;2*+1/p-2",SKCQDFLBBMGDPT-UHFFFAOYSA-L,[Na+].[Na+].Oc1cc(cc2cc(cc(N=Nc3cc(N=Nc4cc(cc(c4O)[N+]([O-])=O)[N+]([O-])=O)c(O)c(N=Nc5ccc(cc5)[N+]([O-])=O)c3O)c12)[S]([O-])(=O)=O)[S]([O-])(=O)=O,-0.96756702490,0.00000000000,1,G1,843.58900,0.44920,178.35080,57,22,4,29,11,282,5,0,0,5,398.90,359.84461724468,0.00000435124,2799.99298753485
A-2811,"disodium 7,7'-(carbonyldiimino)bis[4-hydroxy-3-(phenylazo)naphthalene-2-sulphonate]","InChI=1S/C33H24N6O9S2.2Na/c40-31-25-13-11-23(15-19(25)17-27(49(43,44)45)29(31)38-36-21-7-3-1-4-8-21)34-33(42)35-24-12-14-26-20(16-24)18-28(50(46,47)48)30(32(26)41)39-37-22-9-5-2-6-10-22;;/h1-18,40-41H,(H2,34,35,42)(H,43,44,45)(H,46,47,48);;/q;2*+1/p-2",DSARWKALPGYFTA-UHFFFAOYSA-L,[Na+].[Na+].Oc1c2ccc(NC(=O)Nc3ccc4c(O)c(N=Nc5ccccc5)c(cc4c3)[S]([O-])(=O)=O)cc2cc(c1N=Nc6ccccc6)[S]([O-])(=O)=O,-1.88724669150,0.00000000000,1,G1,756.68600,1.69520,181.02940,52,13,4,19,8,252,6,0,0,6,245.43,340.15829784169,0.00000302499,2416.34180140939
A-2812,trimethyl(oxiran-2-ylmethyl)azanium chloride,"InChI=1S/C6H14NO.ClH/c1-7(2,3)4-6-5-8-6;/h6H,4-5H2,1-3H3;1H/q+1;/p-1",PUVAFTRIIUSGLK-UHFFFAOYSA-M,[Cl-].C[N+](C)(C)CC1CO1,0.74963441100,0.00000000000,1,G1,151.63700,-2.90460,32.63940,9,1,0,3,2,56,0,1,1,1,12.53,62.79457408514,0.00000064000,85.54887502163
A-2814,4-(propan-2-yl)benzene-1-sulfonic acid,"InChI=1S/C9H12O3S/c1-7(2)8-3-5-9(6-4-8)13(10,11)12/h3-7H,1-2H3,(H,10,11,12)",CVLHGLWXLDOELD-UHFFFAOYSA-N,CC(C)c1ccc(cc1)[S](O)(=O)=O,0.61275111390,0.00000000000,1,G1,200.25900,2.05670,50.34560,13,2,1,4,2,72,1,0,0,1,54.37,78.15486547273,3.08355988405,375.82577061538
A-2816,disodium 2-[4-[[1-[[(2-methoxy-5-methyl-4-sulphonatophenyl)amino]carbonyl]-2-oxopropyl]azo]phenyl]-6-methylbenzothiazole-7-sulphonate,"InChI=1S/C26H24N4O9S3.2Na/c1-13-5-10-18-23(24(13)42(36,37)38)40-26(28-18)16-6-8-17(9-7-16)29-30-22(15(3)31)25(32)27-19-11-14(2)21(41(33,34)35)12-20(19)39-4;;/h5-12,22H,1-4H3,(H,27,32)(H,33,34,35)(H,36,37,38);;/q;2*+1/p-2",ADKFZTIPPMZAKW-UHFFFAOYSA-L,[Na+].[Na+].COc1cc(c(C)cc1NC(=O)C(N=Nc2ccc(cc2)c3sc4c(ccc(C)c4[S]([O-])(=O)=O)n3)C(C)=O)[S]([O-])(=O)=O,-0.91634613640,0.00000000000,1,G1,676.66200,-1.91506,151.06510,44,13,1,18,9,220,4,0,0,4,207.41,301.15916283869,0.00000337500,1979.86942450759
A-2818,disodium 5-[(E)-2-(2-hydroxynaphthalen-1-yl)diazen-1-yl]-2-{4-[(E)-2-(2-hydroxynaphthalen-1-yl)diazen-1-yl]-2-sulfonatophenyl}benzene-1-sulfonate,"InChI=1S/C32H22N4O8S2.2Na/c37-27-15-9-19-5-1-3-7-23(19)31(27)35-33-21-11-13-25(29(17-21)45(39,40)41)26-14-12-22(18-30(26)46(42,43)44)34-36-32-24-8-4-2-6-20(24)10-16-28(32)38;;/h1-18,33-34H,(H,39,40,41)(H,42,43,44);;/q;2*+1/p-2/b35-31-,36-32-;;",UJLOYSKARDZKTC-IQRNGZOLSA-L,[Na+].[Na+].[O-][S](=O)(=O)c1cc(N\N=C2/C(=O)C=Cc3ccccc23)ccc1c4ccc(N\N=C5/C(=O)C=Cc6ccccc56)cc4[S]([O-])(=O)=O,-1.89731390620,0.00000000000,1,G1,698.64600,-2.00600,169.08980,48,12,2,16,7,230,4,0,2,6,197.32,319.36911112643,0.00000260100,2156.77409070793
A-2819,4-aminobenzonitrile,"InChI=1S/C7H6N2/c8-5-6-1-3-7(9)4-2-6/h1-4H,9H2",YBAZINRZQSAIAY-UHFFFAOYSA-N,Nc1ccc(cc1)C#N,-1.14297436470,0.01046695340,2,G3,118.13900,1.14048,35.56940,9,2,1,2,0,44,1,0,0,1,49.81,53.52881561238,3.05603839623,230.08821798626
A-2821,potassium 2-sulfanylacetate,"InChI=1S/C2H4O2S.K/c3-2(4)1-5;/h5H,1H2,(H,3,4);/q;+1/p-1",HYTYHTSMCRDHIM-UHFFFAOYSA-M,[K+].[O-]C(=O)CS,0.78067102090,0.00000000000,1,G1,130.20900,-4.32990,18.86000,6,3,1,4,1,30,0,0,0,0,40.13,84.13758035323,0.00000000000,46.81274391313
A-2822,sodium 2-hydroxy-3-(prop-2-en-1-yloxy)propane-1-sulfonate,"InChI=1S/C6H12O5S.Na/c1-2-3-11-4-6(7)5-12(8,9)10;/h2,6-7H,1,3-5H2,(H,8,9,10);/q;+1/p-1",CJGJYOBXQLCLRG-UHFFFAOYSA-M,[Na+].OC(COCC=C)C[S]([O-])(=O)=O,0.55383994960,0.00000000000,1,G1,218.20600,-3.90090,41.58700,13,5,1,7,6,72,0,0,0,0,86.66,99.82417318208,0.00000000000,225.17911034581
A-2823,2-(carboxyoxy)ethyl hydrogen carbonate,InChI=1S/C3H4O3/c4-3-5-1-2-6-3/h1-2H2,KMTRUDSVKNLOMY-UHFFFAOYSA-N,O=C1OCCO1,0.94619105240,0.05450447380,2,G3,88.06200,0.15320,17.30000,6,3,0,3,0,34,0,1,1,1,35.53,34.85191666215,2.36735185102,60.43856189775
A-2824,2-methylidenebutanedioic acid,"InChI=1S/C5H6O4/c1-3(5(8)9)2-4(6)7/h1-2H2,(H,6,7)(H,8,9)",LVHBHZANLOWSRM-UHFFFAOYSA-N,OC(=O)CC(=C)C(O)=O,-0.22502829750,0.01751414875,2,G3,130.09900,0.10190,29.02860,9,2,2,4,3,50,0,0,0,0,74.60,51.42092815771,3.78842760054,158.34093004940
A-2826,(2S)-2-amino-5-carbamimidamidopentanoic acid hydrochloride,"InChI=1S/C6H14N4O2.ClH/c7-4(5(11)12)2-1-3-10-6(8)9;/h4H,1-3,7H2,(H,11,12)(H4,8,9,10);1H/t4-;/m0./s1",KWTQSFXGGICVPE-WCCKRBBISA-N,[Cl-].N[C@@H](CCCN=C(N)N)C(O)=O.[H+],0.53973047240,0.00000000000,1,G1,210.66500,-4.43160,46.63400,13,3,4,7,5,78,0,0,0,0,127.72,84.07260365100,-0.00000060500,186.67031769997
A-2828,sodium 3-[[4-(benzoylethylamino)-2-methylphenyl]azo]-4-hydroxynaphthalene-1-sulphonate,"InChI=1S/C26H23N3O5S.Na/c1-16-14-19(27-17(2)25(30)18-8-4-3-5-9-18)12-13-22(16)28-29-23-15-24(35(32,33)34)20-10-6-7-11-21(20)26(23)31;/h3-15,17,27-28H,1-2H3,(H,32,33,34);/q;+1/p-1/b29-23+;",RIHHHARTNPZGHI-BTCGTBLPSA-M,[Na+].CC(Nc1ccc(N\N=C\2C=C(c3ccccc3C2=O)[S]([O-])(=O)=O)c(C)c1)C(=O)c4ccccc4,-1.81290062180,0.00000000000,1,G1,511.53500,1.23282,134.54060,36,8,2,10,7,178,3,0,1,4,127.76,231.09995696724,0.00000360999,1484.42423482286
A-2831,2-(chloromethyl)oxirane,"InChI=1S/C3H5ClO/c4-1-3-2-5-3/h3H,1-2H2",BRLQWZUYTZBJKN-UHFFFAOYSA-N,ClCC1CO1,-0.14737367920,0.00000000000,1,G1,92.52500,0.62400,20.46000,5,1,0,2,1,30,0,1,1,1,12.53,35.88011555948,1.99893948518,33.87430298093
A-2833,trisodium 2-[bis(carboxylatomethyl)amino]acetate,"InChI=1S/C6H9NO6.3Na/c8-4(9)1-7(2-5(10)11)3-6(12)13;;;/h1-3H2,(H,8,9)(H,10,11)(H,12,13);;;/q;3*+1/p-3",DZCAZXAJPZCSCU-UHFFFAOYSA-K,[Na+].[Na+].[Na+].[O-]C(=O)CN(CC([O-])=O)CC([O-])=O,0.39610323610,0.08115148730,2,G3,257.08500,-14.44990,31.46100,16,7,0,10,6,74,0,0,0,0,123.63,158.43126169487,-0.00000024000,198.26466250649
A-2834,"sodium 2,4-diamino-5-[(E)-2-(2-hydroxy-5-nitrophenyl)diazen-1-yl]benzene-1-sulfonate","InChI=1S/C12H11N5O6S.Na/c13-7-4-8(14)12(24(21,22)23)5-9(7)15-16-10-3-6(17(19)20)1-2-11(10)18;/h1-5,18H,13-14H2,(H,21,22,23);/q;+1/p-1",QHMUUKSTOXAOST-UHFFFAOYSA-M,[Na+].Nc1cc(N)c(cc1N=Nc2cc(ccc2O)[N+]([O-])=O)[S]([O-])(=O)=O,-0.76394209410,0.00000000000,1,G1,375.29800,-1.21170,82.16720,25,10,3,13,4,126,2,0,0,2,197.33,163.10430167152,0.00000312500,962.70837802560
A-2836,di(phenyl)methanimine,"InChI=1S/C13H11N/c14-13(11-7-3-1-4-8-11)12-9-5-2-6-10-12/h1-10,14H",SXZIXHOMFPUIRK-UHFFFAOYSA-N,N=C(c1ccccc1)c2ccccc2,-2.78112800630,0.00000000000,1,G1,181.23800,3.10277,58.81470,14,1,1,1,2,68,2,0,0,2,23.85,83.53879043922,2.34863760451,376.00325541530
A-2838,sodium 2-sulfanylacetate,"InChI=1S/C2H4O2S.Na/c3-2(4)1-5;/h5H,1H2,(H,3,4);/q;+1/p-1",GNBVPFITFYNRCN-UHFFFAOYSA-M,[Na+].[O-]C(=O)CS,0.72739914880,0.00000000000,1,G1,114.10100,-4.32990,18.86000,6,3,1,4,1,30,0,0,0,0,40.13,63.62841528058,0.00000000000,46.81274391313
A-2839,"potassium 3,5,5-trimethylhexanoate","InChI=1S/C9H18O2.K/c1-7(5-8(10)11)6-9(2,3)4;/h7H,5-6H2,1-4H3,(H,10,11);/q;+1/p-1",PMTWGKHDSHSGIL-UHFFFAOYSA-M,[K+].CC(CC([O-])=O)CC(C)(C)C,0.48516237170,0.00000000000,1,G1,196.33100,-1.79730,42.86000,12,2,0,3,3,66,0,0,0,0,40.13,117.53710849060,0.00000000000,137.95418659386
A-2840,"sodium 2-amino-4-nitrophenol benzene-1,3-diol 2-amino-4-nitro-6-sulfobenzen-1-olate iron sodium hydride","InChI=1S/C6H6N2O6S.C6H6N2O3.C6H6O2.Fe.2Na/c7-4-1-3(8(10)11)2-5(6(4)9)15(12,13)14;7-5-3-4(8(10)11)1-2-6(5)9;7-5-2-1-3-6(8)4-5;;;/h1-2,9H,7H2,(H,12,13,14);1-3,9H,7H2;1-4,7-8H;;;/q;;;;;+1/p-1",KABLUZZLSKUJBA-UHFFFAOYSA-M,[Na].[Na+].[Fe].Nc1cc(ccc1O)[N+]([O-])=O.Nc2cc(cc(c2O)[S]([O-])(=O)=O)[N+]([O-])=O.Oc3cccc(O)c3,-0.99405668730,0.02035027469,3,G5,599.24300,-1.61220,121.83600,37,13,6,19,3,191,3,0,0,3,276.44,263.77097721418,-0.00000046946,1313.77299453837
A-2843,disodium 7-anilino-4-hydroxy-3-({2-methoxy-5-methyl-4-[(4-sulfonatophenyl)diazenyl]phenyl}diazenyl)naphthalene-2-sulfonate,"InChI=1S/C30H25N5O8S2.2Na/c1-18-14-26(27(43-2)17-25(18)33-32-21-8-11-23(12-9-21)44(37,38)39)34-35-29-28(45(40,41)42)16-19-15-22(10-13-24(19)30(29)36)31-20-6-4-3-5-7-20;;/h3-17,31,34H,1-2H3,(H,37,38,39)(H,40,41,42);;/q;2*+1/p-2/b33-32?,35-29+;;",FXQXWRHUUBSXMQ-DFLIUALPSA-L,[Na+].[Na+].COc1cc(N=Nc2ccc(cc2)[S]([O-])(=O)=O)c(C)cc1N\N=C/3C(=O)c4ccc(Nc5ccccc5)cc4C=C3[S]([O-])(=O)=O,-2.04540147420,0.00000000000,1,G1,691.65500,-0.37478,165.54130,47,13,2,17,9,230,4,0,1,5,201.84,314.86800355121,0.00000300125,2123.52050994409
A-2845,"disodium 5-benzamido-4-hydroxy-3-[(E)-2-[2-(2-methylphenoxy)phenyl]diazen-1-yl]naphthalene-2,7-disulfonate","InChI=1S/C30H23N3O9S2.2Na/c1-18-9-5-7-13-24(18)42-25-14-8-6-12-22(25)32-33-28-26(44(39,40)41)16-20-15-21(43(36,37)38)17-23(27(20)29(28)34)31-30(35)19-10-3-2-4-11-19;;/h2-17,32H,1H3,(H,31,35)(H,36,37,38)(H,39,40,41);;/q;2*+1/p-2/b33-28+;;",DBWPJEFEDHFXDH-RAHJWFRPSA-L,[Na+].[Na+].Cc1ccccc1Oc2ccccc2N\N=C/3C(=O)c4c(NC(=O)c5ccccc5)cc(cc4C=C3[S]([O-])(=O)=O)[S]([O-])(=O)=O,-2.05067146720,0.00000000000,1,G1,677.62400,-1.49778,159.55780,46,11,2,16,8,224,4,0,1,5,194.19,308.58274780677,0.00000288000,2103.10655076755
A-2846,3-(morpholin-4-yl)propane-1-sulfonic acid,"InChI=1S/C7H15NO4S/c9-13(10,11)7-1-2-8-3-5-12-6-4-8/h1-7H2,(H,9,10,11)",DVLFYONBTKHTER-UHFFFAOYSA-N,[O-][S](=O)(=O)CCC[NH+]1CCOCC1,0.45578250740,0.00000000000,1,G1,209.26700,-2.16320,45.56390,13,4,1,6,4,78,0,1,1,1,70.87,78.42508747043,2.11200656379,232.87709722477
A-2848,"octasodium 7,7'-[(2,2'-disulphonato[1,1'-biphenyl]-4,4'-diyl)bis[imino(6-chloro-1,3,5-triazine-4,2-diyl)imino[2-(carbamoylamino)]-4,1-phenylene]azo]]bis(naphthalene-1,3,6-trisulphonate)","InChI=1S/C52H38Cl2N18O26S8.8Na/c53-45-63-49(57-23-3-7-33(35(13-23)61-47(55)73)69-71-37-19-31-21(11-43(37)105(93,94)95)9-27(99(75,76)77)17-41(31)103(87,88)89)67-51(65-45)59-25-1-5-29(39(15-25)101(81,82)83)30-6-2-26(16-40(30)102(84,85)86)60-52-66-46(54)64-50(68-52)58-24-4-8-34(36(14-24)62-48(56)74)70-72-38-20-32-22(12-44(38)106(96,97)98)10-28(100(78,79)80)18-42(32)104(90,91)92;;;;;;;;/h1-20H,(H3,55,61,73)(H3,56,62,74)(H,75,76,77)(H,78,79,80)(H,81,82,83)(H,84,85,86)(H,87,88,89)(H,90,91,92)(H,93,94,95)(H,96,97,98)(H2,57,59,63,65,67)(H2,58,60,64,66,68);;;;;;;;/q;8*+1/p-8",WAPHSRMHUOCGQE-UHFFFAOYSA-F,[Na+].[Na+].[Na+].[Na+].[Na+].[Na+].[Na+].[Na+].NC(=O)Nc1cc(Nc2nc(Cl)nc(Nc3ccc(c4ccc(Nc5nc(Cl)nc(Nc6ccc(N=Nc7cc8c(cc(cc8[S]([O-])(=O)=O)[S]([O-])(=O)=O)cc7[S]([O-])(=O)=O)c(NC(N)=O)c6)n5)cc4[S]([O-])(=O)=O)c(c3)[S]([O-])(=O)=O)n2)ccc1N=Nc9cc%10c(cc(cc%10[S]([O-])(=O)=O)[S]([O-])(=O)=O)cc9[S]([O-])(=O)=O,-1.49816828050,0.00000000000,1,G1,1834.27400,-18.61200,353.93260,114,40,8,62,23,554,10,0,0,10,742.74,830.38053564041,0.00000551041,6185.09134933345
A-2849,lithium(1+) ion chloride,InChI=1S/ClH.Li/h1H;/q;+1/p-1,KWGKDLIKAYFUFQ-UHFFFAOYSA-M,[Li+].[Cl-],1.13439797210,0.07999205395,2,G3,42.39400,-5.99200,0.00000,2,0,0,2,0,8,0,0,0,0,0.00,31.81913653839,0.00000000000,2.00000000000
A-2850,2-piperidin-2-ylethanol,"InChI=1S/C7H15NO/c9-6-4-7-3-1-2-5-8-7/h7-9H,1-6H2/p+1/t7-/m0/s1",PTHDBHDZSMGHKF-ZETCQYMHSA-O,OCC[C@@H]1CCCC[NH2+]1,0.64274835460,0.00000000000,1,G1,130.21100,-0.51530,36.13420,9,1,2,2,2,54,0,1,1,1,36.84,56.26716849648,2.07786075546,66.56151495416
A-2851,"2-amino-2-(hydroxymethyl)propane-1,3-diol hydrochloride","InChI=1S/C4H11NO3.ClH/c5-4(1-6,2-7)3-8;/h6-8H,1-3,5H2;1H",QKNYBSVHEMOAJP-UHFFFAOYSA-N,[H+].[Cl-].NC(CO)(CO)CO,0.55141491520,0.00000000000,1,G1,157.59700,-5.22270,29.28780,9,4,4,5,3,58,0,0,0,0,86.71,61.19456094667,-0.00000024500,63.25838096618
A-2852,2-methylpropyl (2R)-2-hydroxypropanoate,"InChI=1S/C7H14O3/c1-5(2)4-10-7(9)6(3)8/h5-6,8H,4H2,1-3H3/t6-/m1/s1",WBPAQKQBUKYCJS-ZCFIWIBFSA-N,CC(C)COC(=O)[C@@H](C)O,-0.41285733510,0.03676503440,2,G3,146.18600,0.56640,37.47780,10,3,1,3,3,60,0,0,0,0,46.53,60.99820479596,3.40375330615,107.41884680992
A-2853,calcium 2-sulfanidylacetate,"InChI=1S/C2H4O2S.Ca/c3-2(4)1-5;/h5H,1H2,(H,3,4);/q;+2/p-1",QVCFQEFEMBCIOI-UHFFFAOYSA-M,[Ca++].[O-]C(=O)CS,-0.38389813510,0.00000000000,1,G1,131.18900,-1.71470,24.61400,6,3,1,4,1,30,0,0,0,0,40.13,71.33078365309,0.00000000000,46.81274391313
A-2854,"3-(aminomethyl)-3,5,5-trimethylcyclohexan-1-ol","InChI=1S/C10H21NO/c1-9(2)4-8(12)5-10(3,6-9)7-11/h8,12H,4-7,11H2,1-3H3",YFEAYNIMJBHJCM-UHFFFAOYSA-N,CC1(C)CC(O)CC(C)(CN)C1,0.48899937100,0.00000000000,1,G1,171.28400,1.52240,50.80020,12,2,2,2,1,72,0,1,1,1,46.25,75.15202335308,2.69567657043,167.22151457064
A-2855,sodium 2-methylprop-2-ene-1-sulfonate,"InChI=1S/C4H8O3S.Na/c1-4(2)3-8(5,6)7;/h1,3H2,2H3,(H,5,6,7);/q;+1/p-1",SZHIIIPPJJXYRY-UHFFFAOYSA-M,[Na+].CC(=C)C[S]([O-])(=O)=O,0.51942150840,0.00000000000,1,G1,158.15400,-2.88830,29.37820,9,3,0,5,2,48,0,0,0,0,57.20,77.18650997159,0.00000000000,181.98942873086
A-2856,dipotassium O-[(sulfonatoperoxy)sulfonyl]oxidanidolate,"InChI=1S/2K.H2O8S2/c;;1-9(2,3)7-8-10(4,5)6/h;;(H,1,2,3)(H,4,5,6)/q2*+1;/p-2",USHAGKDGDHPEEY-UHFFFAOYSA-L,[K+].[K+].[O-][S](=O)(=O)OO[S]([O-])(=O)=O,-0.65373014160,0.00000000000,1,G1,270.32200,-8.13700,21.56440,12,8,0,12,3,62,0,0,0,0,132.86,154.05110385111,-0.00000040500,251.01955000865
A-2857,(2S)-2-hydroxy-3-(phenylamino)propane-1-sulfonate,"InChI=1S/C9H13NO4S/c11-9(7-15(12,13)14)6-10-8-4-2-1-3-5-8/h1-5,9-11H,6-7H2,(H,12,13,14)/p-1/t9-/m0/s1",CLEVULOKVPBHCU-VIFPVBQESA-M,O[C@@H](CNc1ccccc1)C[S]([O-])(=O)=O,0.11878449020,0.00000000000,1,G1,230.26500,0.00460,55.50270,15,5,2,6,5,84,1,0,0,1,89.46,88.49896140853,2.38137473385,389.83318821800
A-2858,"2-[2-[4-[(2-cyanoethyl)methylamino]phenyl]vinyl]-1,3,3-trimethyl-3H-indolium dihydrogen phosphate","InChI=1S/C23H26N3.H3O4P/c1-23(2)20-8-5-6-9-21(20)26(4)22(23)15-12-18-10-13-19(14-11-18)25(3)17-7-16-24;1-5(2,3)4/h5-6,8-15H,7,17H2,1-4H3;(H3,1,2,3,4)/q+1;/p-1",XVIVSJJRGUZEAO-UHFFFAOYSA-M,CN(CCC#N)c1ccc(cc1)C=CC2=[N+](C)c3ccccc3C2(C)C.O[P](O)([O-])=O,-0.93040182040,0.00000000000,1,G1,441.46800,3.19528,121.33950,31,4,2,8,5,164,2,0,1,3,110.63,183.00327680693,0.00000061374,1054.70966270001
A-2859,"sodium 3-[2-heptyl-3-(2-hydroxyethyl)-2,3-dihydro-1H-imidazol-1-yl]propanoate","InChI=1S/C15H28N2O3.Na/c1-2-3-4-5-6-7-14-16(9-8-15(19)20)10-11-17(14)12-13-18;/h10-11,14,18H,2-9,12-13H2,1H3,(H,19,20);/q;+1/p-1",YIJNRGGQSJNTGE-UHFFFAOYSA-M,[Na+].CCCCCCCC1N(CCO)C=CN1CCC([O-])=O,0.21270675750,0.00000000000,1,G1,306.38200,-2.10190,76.42580,21,5,1,6,11,116,0,0,1,1,66.84,149.83606301122,0.00000400000,313.29385517857
A-2860,tetrasodium 2-({2-[bis(carboxylatomethyl)amino]ethyl}(carboxylatomethyl)amino)acetate,"InChI=1S/C10H16N2O8.4Na/c13-7(14)3-11(4-8(15)16)1-2-12(5-9(17)18)6-10(19)20;;;;/h1-6H2,(H,13,14)(H,15,16)(H,17,18)(H,19,20);;;;/q;4*+1/p-4",UEUXEKPTXMALOB-UHFFFAOYSA-J,[Na+].[Na+].[Na+].[Na+].[O-]C(=O)CN(CCN(CC([O-])=O)CC([O-])=O)CC([O-])=O,0.11898987680,0.03222899460,2,G3,380.17200,-19.39400,52.90800,24,10,0,14,11,114,0,0,0,0,167.00,227.02001929761,-0.00000030083,331.05441917228
A-2863,chromium(3+) ion trifluoride,InChI=1S/Cr.3F,QZEZRQVFRMLNPK-UHFFFAOYSA-N,[F].[F].[F].[Cr],-0.33841664820,0.22599473205,3,G5,108.99000,1.25810,3.32400,4,0,0,4,0,27,0,0,0,0,0.00,32.42797964509,0.00000000000,3.24511249784
A-2864,oxiran-2-ylmethyl 2-methylprop-2-enoate,"InChI=1S/C7H10O3/c1-5(2)7(8)10-4-6-3-9-6/h6H,1,3-4H2,2H3",VOZRXNHHFUQHIL-UHFFFAOYSA-N,CC(=C)C(=O)OCC1CO1,-0.45378908030,0.00000000000,1,G1,142.15400,0.50450,35.51300,10,3,0,3,3,56,0,1,1,1,38.83,59.62208208755,2.10775169601,158.23415450316
A-2865,3-nitro-2H-pyrazole,"InChI=1S/C3H3N3O2/c7-6(8)3-1-2-4-5-3/h1-2H,(H,4,5)",MZRUFMBFIKGOAL-UHFFFAOYSA-N,[O-][N+](=O)c1[nH]ncc1,-1.28547282110,0.00000000000,1,G1,113.07600,0.31790,25.24210,8,3,1,5,1,42,1,0,0,1,71.82,44.48164081236,2.92837523743,180.41842212960
A-2868,sodium bis[2-[[5-(aminosulphonyl)-2-hydroxyphenyl]azo]-3-oxo-N-phenylbutyramidato(2-)]cobaltate(1-),"InChI=1S/2C16H16N4O5S.Co.Na/c2*1-10(21)15(16(23)18-11-5-3-2-4-6-11)20-19-13-9-12(26(17,24)25)7-8-14(13)22;;/h2*2-9H,1H3,(H5,17,18,19,20,21,22,23,24,25);;/q;;+3;+1/p-4",GOMMRZOFKXWNAB-UHFFFAOYSA-J,[Na+].[Co+3].CC(=O)/C(=N/Nc1cc(ccc1[O-])[S](N)(=O)=O)C(=O)[N-]c2ccccc2.CC(=O)/C(=N/Nc3cc(ccc3[O-])[S](N)(=O)=O)C(=O)[N-]c4ccccc4,-2.20847011240,0.00000000000,1,G1,830.67900,-1.00550,186.93580,54,14,4,22,12,278,4,0,0,4,311.70,341.62774174061,0.00000052071,2118.12016631917
A-2869,"2-hexoxypropane-1,3-diol","InChI=1S/C9H20O3/c1-2-3-4-5-6-12-9(7-10)8-11/h9-11H,2-8H2,1H3",PXWAQUODOTWYMT-UHFFFAOYSA-N,CCCCCCOC(CO)CO,-1.05581221170,0.00000000000,1,G1,176.25600,0.93650,48.05360,12,3,2,3,8,74,0,0,0,0,49.69,74.36080067690,3.06239901672,81.84283310353
A-2870,1-ethyl-1-methylpyrrolidin-1-ium bromide,"InChI=1S/C7H16N.BrH/c1-3-8(2)6-4-5-7-8;/h3-7H2,1-2H3;1H/q+1;/p-1",KHJQQUGSPDBDRM-UHFFFAOYSA-M,[Br-].CC[N+]1(C)CCCC1,1.41018714290,0.00000000000,1,G1,194.11600,-1.74930,35.69340,9,0,0,2,1,56,0,1,1,1,0.00,68.40557982993,0.00000064000,76.98533616860
A-2871,potassium benzoate,"InChI=1S/C7H6O2.K/c8-7(9)6-4-2-1-3-5-6;/h1-5H,(H,8,9);/q;+1/p-1",XAEFZNCEHLXOMS-UHFFFAOYSA-M,[K+].[O-]C(=O)c1ccccc1,0.48726735010,0.00000000000,1,G1,160.21300,-2.94590,30.77250,10,2,0,3,1,46,1,0,0,1,40.13,101.67466578150,0.00000081000,208.10590854015
A-2872,1-benzyl-3-carbamoylpyridin-1-ium chloride,"InChI=1S/C13H12N2O.ClH/c14-13(16)12-7-4-8-15(10-12)9-11-5-2-1-3-6-11;/h1-8,10H,9H2,(H-,14,16);1H",XLYNVJJFQHWCEU-UHFFFAOYSA-N,[Cl-].NC(=O)c1ccc[n+](Cc2ccccc2)c1,0.29361037310,0.00000000000,1,G1,248.71300,-1.87470,60.69890,17,1,1,4,3,88,2,0,0,2,46.97,106.30250707150,0.00000144500,499.78246595818