ID,Name,InChI,InChIKey,SMILES,Solubility,SD,Ocurrences,Group,MolWt,MolLogP,MolMR,HeavyAtomCount,NumHAcceptors,NumHDonors,NumHeteroatoms,NumRotatableBonds,NumValenceElectrons,NumAromaticRings,NumSaturatedRings,NumAliphaticRings,RingCount,TPSA,LabuteASA,BalabanJ,BertzCT
A-3410,"disodium 1-amino-4-(4-amino-9,10-dioxo-3-sulfonato-9,10-dihydroanthracen-1-yl)-9,10-dioxo-9,10-dihydroanthracene-2-sulfonate","InChI=1S/C28H16N2O10S2.2Na/c29-23-17(41(35,36)37)9-15(19-21(23)27(33)13-7-3-1-5-11(13)25(19)31)16-10-18(42(38,39)40)24(30)22-20(16)26(32)12-6-2-4-8-14(12)28(22)34;;/h1-10H,29-30H2,(H,35,36,37)(H,38,39,40);;/q;2*+1/p-2",OKHQKAVALRCESS-UHFFFAOYSA-L,[Na+].[Na+].Nc1c2C(=O)c3ccccc3C(=O)c2c(cc1[S]([O-])(=O)=O)c4cc(c(N)c5C(=O)c6ccccc6C(=O)c45)[S]([O-])(=O)=O,-2.03018005330,0.00000000000,1,G1,648.53800,-4.11500,143.24320,44,12,2,16,3,210,4,0,2,6,234.72,293.46073294792,0.00000220900,2089.87751461931
A-3411,1-ethylpiperidine,"InChI=1S/C7H15N/c1-2-8-6-4-3-5-7-8/h2-7H2,1H3",HTLZVHNRZJPSMI-UHFFFAOYSA-N,CCN1CCCCC1,-1.27571052230,0.00000000000,1,G1,113.20400,1.49220,35.96500,8,1,0,1,1,48,0,1,1,1,3.24,51.68290623088,2.12501625541,55.40716557156
A-3412,2-amino-5-methylbenzene-1-sulfonic acid,"InChI=1S/C7H9NO3S/c1-5-2-3-6(8)7(4-5)12(9,10)11/h2-4H,8H2,1H3,(H,9,10,11)",LTPSRQRIPCVMKQ-UHFFFAOYSA-N,Cc1ccc(N)c(c1)[S](O)(=O)=O,-1.49420099050,0.03789950475,2,G3,187.22000,0.82392,45.40600,12,3,2,5,1,66,1,0,0,1,80.39,70.76487194095,3.43449390890,397.11255734461
A-3414,"bis(2-phenyl-4,5-dihydro-1H-imidazole); benzene-1,2,4,5-tetracarboxylic acid","InChI=1S/C10H6O8.2C9H10N2/c11-7(12)3-1-4(8(13)14)6(10(17)18)2-5(3)9(15)16;2*1-2-4-8(5-3-1)9-10-6-7-11-9/h1-2H,(H,11,12)(H,13,14)(H,15,16)(H,17,18);2*1-5H,6-7H2,(H,10,11)",XSMMIZPIWZYHNL-UHFFFAOYSA-N,OC(=O)c1cc(C(O)=O)c(cc1C(O)=O)C(O)=O.C2CN=C(N2)c3ccccc3.C4CN=C(N4)c5ccccc5,-1.95946752360,0.00000000000,1,G1,546.53600,2.55220,145.97660,40,8,6,12,6,206,3,0,2,5,197.98,227.90840542349,0.00000017281,1296.14109102908
A-3416,imidazolidin-2-one,"InChI=1S/C3H6N2O/c6-3-4-1-2-5-3/h1-2H2,(H2,4,5,6)",YAMHXTCMCPHKLN-UHFFFAOYSA-N,O=C1NCCN1,0.84027337380,0.10945867351,3,G5,86.09400,-0.70080,21.40140,6,1,2,3,0,34,0,1,1,1,41.13,35.72455057035,2.36735185102,63.19344939991
A-3418,iron(+3) cation; oxygen(-2) anion,InChI=1S/2Fe.3O/q2*+3;3*-2,LIKBJVNGSGBSGK-UHFFFAOYSA-N,[O--].[O--].[O--].[Fe+3].[Fe+3],-3.72614830730,0.00000000000,1,G1,159.68700,-0.36140,2.05950,5,0,0,5,0,34,0,0,0,0,85.50,51.00197858959,0.00000000000,4.85475297227
A-3420,bis(hydroxyazanium) sulfate,"InChI=1S/2H4NO.H2O4S/c2*1-2;1-5(2,3)4/h2*2H,1H3;(H2,1,2,3,4)/q2*+1;/p-2",VGYYSIDKAKXZEE-UHFFFAOYSA-L,[NH3+]O.[NH3+]O.[O-][S]([O-])(=O)=O,0.55342631800,0.00000000000,1,G1,164.13900,-4.10300,19.82380,9,6,4,9,0,60,0,0,0,0,176.00,51.19417075616,-0.00000007714,94.22626787691
A-3421,dichlorocobalt,InChI=1S/2ClH.Co/h2*1H;/q;;+2/p-2,GVPFVAHMJGGAJG-UHFFFAOYSA-L,[Cl-].[Cl-].[Co++],0.65441833600,0.00000000000,1,G1,129.83900,-5.99450,0.00000,3,0,0,3,0,23,0,0,0,0,0.00,41.99469774647,0.00000000000,2.75488750216
A-3423,potassium pentahydrogen diphosphate,"InChI=1S/K.H3O4P/c;1-5(2,3)4/h;(H3,1,2,3,4)/q+1;",GNSKLFRGEWLPPA-UHFFFAOYSA-N,[K+].O[P](O)(O)=O,0.62865644250,0.00000000000,1,G1,137.09200,-3.92460,14.26290,6,1,3,6,0,32,0,0,0,0,77.76,77.22918553986,0.00000000000,53.68367439558
A-3430,potassium (2S)-4-carboxy-2-tetradecanamidobutanoate,"InChI=1S/C19H35NO5.K/c1-2-3-4-5-6-7-8-9-10-11-12-13-17(21)20-16(19(24)25)14-15-18(22)23;/h16H,2-15H2,1H3,(H,20,21)(H,22,23)(H,24,25);/q;+1/p-1/t16-;/m0./s1",KYLDDUZJZSKJER-NTISSMGPSA-M,[K+].CCCCCCCCCCCCCC(=O)N[C@@H](CCC(O)=O)C([O-])=O,-0.83082257690,0.00000000000,1,G1,395.58100,-0.20900,94.88550,26,4,2,7,17,146,0,0,0,0,106.53,199.85366977046,0.00000000000,390.12576954565
A-3432,"1,3-bis(acetyloxy)propan-2-yl acetate","InChI=1S/C9H14O6/c1-6(10)13-4-9(15-8(3)12)5-14-7(2)11/h9H,4-5H2,1-3H3",URAYPUMNDPQOKB-UHFFFAOYSA-N,CC(=O)OCC(COC(C)=O)OC(C)=O,-0.57543670430,0.04541032059,3,G5,218.20500,0.04430,48.82000,15,6,0,6,5,86,0,0,0,0,78.90,87.48398993165,3.99220554683,228.98712426016
A-3433,"2,2-dimethyloxirane","InChI=1S/C4H8O/c1-4(2)3-5-4/h3H2,1-2H3",GELKGHVAFRCJNA-UHFFFAOYSA-N,CC1(C)CO1,-0.09454943360,0.00000000000,1,G1,72.10700,0.79520,20.03100,5,1,0,1,0,30,0,1,1,1,12.53,31.94179144700,2.38219857535,41.60964047444
A-3434,hexyl D-glucoside,"InChI=1S/C12H24O6/c1-2-3-4-5-6-17-12-11(16)10(15)9(14)8(7-13)18-12/h8-16H,2-7H2,1H3/t8-,9-,10+,11-,12?/m1/s1",JVAZJLFFSJARQM-OZRWLHRGSA-N,CCCCCCOC1O[C@H](CO)[C@@H](O)[C@H](O)[C@H]1O,-0.65869874590,0.00000000000,1,G1,264.31800,-0.61680,63.86120,18,6,4,6,7,108,0,1,1,1,99.38,107.15180860046,2.34564940224,222.61317499160
A-3435,"2-hydroxypropane-1,2,3-tricarboxylic acid","InChI=1S/C6H8O7/c7-3(8)1-6(13,5(11)12)2-4(9)10/h13H,1-2H2,(H,7,8)(H,9,10)(H,11,12)",KRKNYBCHXYNGOX-UHFFFAOYSA-N,OC(=O)CC(O)(CC(O)=O)C(O)=O,0.47684312390,0.08186450475,5,G5,192.12300,-1.24850,37.09120,13,4,4,7,5,74,0,0,0,0,132.13,72.22546290873,4.61931213496,227.36732222044
A-3437,"1H-1,2,4-triazol-3-amine","InChI=1S/C2H4N4/c3-2-4-1-5-6-2/h1H,(H3,3,4,5,6)",KLSJWNVTNUYHDU-UHFFFAOYSA-N,Nc1[nH]ncn1,0.83269299540,0.29113542811,4,G5,84.08200,-0.61310,20.79510,6,3,2,4,0,32,1,0,0,1,67.59,34.38820376782,3.04964832131,109.10850553449
A-3438,"tris(2-hydroxyethyl)-1,3,5-triazinane-2,4,6-trione","InChI=1S/C9H15N3O6/c13-4-1-10-7(16)11(2-5-14)9(18)12(3-6-15)8(10)17/h13-15H,1-6H2",BPXVHIRIPLPOPT-UHFFFAOYSA-N,OCCN1C(=O)N(CCO)C(=O)N(CCO)C1=O,0.34036632840,0.15165090580,2,G3,261.23400,-3.85140,60.47940,18,9,3,9,6,102,1,0,0,1,126.69,100.77718176522,3.59113057360,457.86461252979
A-3439,"sodium dihydrogen 2-hydroxypropane-1,2,3-tricarboxylate","InChI=1S/C6H8O7.Na/c7-3(8)1-6(13,5(11)12)2-4(9)10;/h13H,1-2H2,(H,7,8)(H,9,10)(H,11,12);/q;+1/p-1",HWPKGOGLCKPRLZ-UHFFFAOYSA-M,[Na+].OC(=O)CC(O)(CC(O)=O)C([O-])=O,0.42524804620,0.31277054360,2,G3,214.10500,-5.57920,34.46240,14,5,3,8,5,74,0,0,0,0,134.96,100.63886253144,0.00000000000,232.56457479341
A-3441,"disodium 1-amino-4-[[4-[(2-bromo-1-oxoallyl)amino]-2-sulphonatophenyl]amino]-9,10-dihydro-9,10-dioxoanthracene-2-sulphonate","InChI=1S/C23H16BrN3O9S2.2Na/c1-10(24)23(30)26-11-6-7-14(16(8-11)37(31,32)33)27-15-9-17(38(34,35)36)20(25)19-18(15)21(28)12-4-2-3-5-13(12)22(19)29;;/h2-9,27H,1,25H2,(H,26,30)(H,31,32,33)(H,34,35,36);;/q;2*+1/p-2",BCENAVMKNRCXMQ-UHFFFAOYSA-L,[Na+].[Na+].Nc1c2C(=O)c3ccccc3C(=O)c2c(Nc4ccc(NC(=O)C(Br)=C)cc4[S]([O-])(=O)=O)cc1[S]([O-])(=O)=O,-1.06180389150,0.00000000000,1,G1,666.39500,-3.54890,136.50920,40,11,3,17,6,196,3,0,1,4,215.69,280.55066815340,0.00000280166,1829.12644594644
A-3442,"disodium 4,4'-bis[[4-anilino-6-[(2-carbamoylethyl)(2-hydroxyethyl)amino]-1,3,5,-triazin-2-yl]amino]stilbene-2,2'-disulphonate","InChI=1S/C42H46N14O10S2.2Na/c43-35(59)17-19-55(21-23-57)41-51-37(45-29-7-3-1-4-8-29)49-39(53-41)47-31-15-13-27(33(25-31)67(61,62)63)11-12-28-14-16-32(26-34(28)68(64,65)66)48-40-50-38(46-30-9-5-2-6-10-30)52-42(54-40)56(22-24-58)20-18-36(44)60;;/h1-16,25-26,57-58H,17-24H2,(H2,43,59)(H2,44,60)(H,61,62,63)(H,64,65,66)(H2,45,47,49,51,53)(H2,46,48,50,52,54);;/q;2*+1/p-2/b12-11+;;",KXZDXBWYWMOFCR-YHPRVSEPSA-L,[Na+].[Na+].NC(=O)CCN(CCO)c1nc(Nc2ccccc2)nc(Nc3ccc(\C=C\c4ccc(Nc5nc(Nc6ccccc6)nc(n5)N(CCO)CCC(N)=O)cc4[S]([O-])(=O)=O)c(c3)[S]([O-])(=O)=O)n1,-1.24756099580,0.00000000000,1,G1,1015.01600,-3.63420,249.62760,70,22,8,28,24,356,6,0,0,6,372.98,446.11894481492,0.00000532898,2803.63920516167
A-3444,xylose,"InChI=1S/C5H10O5/c6-2-1-10-5(9)4(8)3(2)7/h2-9H,1H2",SRBFZHDQGSBBOR-UHFFFAOYSA-N,OC1COC(O)C(O)C1O,0.57788085110,0.14073526664,5,G5,150.13000,-2.58230,29.97920,10,5,4,5,0,60,0,1,1,1,90.15,57.48366857018,2.51583597931,102.60593781761
A-3445,"2,4-dihydroxy-N-(3-hydroxypropyl)-3,3-dimethylbutanamide","InChI=1S/C9H19NO4/c1-9(2,6-12)7(13)8(14)10-4-3-5-11/h7,11-13H,3-6H2,1-2H3,(H,10,14)",SNPLKNRPJHDVJA-UHFFFAOYSA-N,CC(C)(CO)C(O)C(=O)NCCCO,0.43767645410,0.00000000000,1,G1,205.25400,-1.13560,51.58610,14,4,4,5,6,84,0,0,0,0,89.79,83.75287348324,3.98887892462,181.65076769132
A-3446,"(2R,3R)-2,3-dihydroxybutanedioic acid","InChI=1S/C4H6O6/c5-1(3(7)8)2(6)4(9)10/h1-2,5-6H,(H,7,8)(H,9,10)",FEWJPZIEWOKRBE-UHFFFAOYSA-N,OC(C(O)C(O)=O)C(O)=O,0.57184784380,0.68283268246,10,G4,150.08600,-2.12260,27.28520,10,4,4,6,3,58,0,0,0,0,115.06,55.33405657989,4.06951190893,133.82680599647
A-3447,[(bis{6-[bis(phosphonomethyl)amino]hexyl}amino)methyl]phosphonic acid,"InChI=1S/C17H44N3O15P5/c21-36(22,23)13-18(9-5-1-3-7-11-19(14-37(24,25)26)15-38(27,28)29)10-6-2-4-8-12-20(16-39(30,31)32)17-40(33,34)35/h1-17H2,(H2,21,22,23)(H2,24,25,26)(H2,27,28,29)(H2,30,31,32)(H2,33,34,35)",YWMWZKYVGNWJPU-UHFFFAOYSA-N,O[P](O)(=O)CN(CCCCCCN(C[P](O)(O)=O)C[P](O)(O)=O)CCCCCCN(C[P](O)(O)=O)C[P](O)(O)=O,-0.08776557750,0.00000000000,1,G1,685.41500,0.68920,146.47650,40,8,10,23,24,242,0,0,0,0,297.37,233.11486547248,4.52019567758,846.10735062694
A-3448,potassium hydrogen tartarate,"InChI=1S/C4H6O6.K/c5-1(3(7)8)2(6)4(9)10;/h1-2,5-6H,(H,7,8)(H,9,10);/q;+1/p-1/t1-,2-;/m1./s1",KYKNRZGSIGMXFH-ZVGUSBNCSA-M,[K+].O[C@H]([C@@H](O)C([O-])=O)C(O)=O,0.47362379440,0.75330412919,8,G4,188.17600,-6.45330,24.65640,11,5,3,7,3,58,0,0,0,0,117.89,104.25662127525,0.00000000000,138.66127285261
A-3452,dimethyl 2-acetylsuccinate,"InChI=1S/C8H12O5/c1-5(9)6(8(11)13-3)4-7(10)12-2/h6H,4H2,1-3H3",XREKLQOUFWBSFH-UHFFFAOYSA-N,COC(=O)CC(C(C)=O)C(=O)OC,-0.52483484080,0.00000000000,1,G1,188.17900,-0.07230,42.82000,13,5,0,5,4,74,0,0,0,0,69.67,76.00550258775,4.35120567962,220.57427589601
A-3453,palladium(2+) ion tetraamine dihydrogen carbonate,"InChI=1S/2CH2O3.4H3N.Pd/c2*2-1(3)4;;;;;/h2*(H2,2,3,4);4*1H3;/q;;;;;;+2/p-2",QYYPTZGPXKUKRM-UHFFFAOYSA-L,N.N.N.N.[Pd++].OC([O-])=O.OC([O-])=O,-0.72239968790,0.00000000000,1,G1,296.57600,-1.57910,36.13800,13,8,6,11,0,88,0,0,0,0,260.72,87.93227124548,-0.00000000800,80.63504134882
A-3459,2-{[4-(oxiran-2-ylmethoxy)butoxy]methyl}oxirane,"InChI=1S/C10H18O4/c1(3-11-5-9-7-13-9)2-4-12-6-10-8-14-10/h9-10H,1-8H2",SHKUUQIDMUMQQK-UHFFFAOYSA-N,C(CCOCC1CO1)COCC2CO2,-0.56081373870,0.00000000000,1,G1,202.25000,0.59740,50.35200,14,4,0,4,9,82,0,2,2,2,43.52,84.46624866837,1.25373464700,136.20098801186
A-3460,palladium(2+) dichloride,InChI=1S/2ClH.Pd/h2*1H;/q;;+2/p-2,PIBWKRNGBLPSSY-UHFFFAOYSA-L,[Cl-].[Cl-].[Pd++],-0.50369762610,0.56988487270,2,G2,177.32600,-5.99450,0.00000,3,0,0,3,0,24,0,0,0,0,0.00,45.45393055007,0.00000000000,2.75488750216
A-3461,sodium hydrogensulphide,InChI=1S/Na.H2S/h;1H2/q+1;/p-1,HYHCSLBZRBJJCH-UHFFFAOYSA-M,[Na+].[SH-],0.99008873200,0.00000000000,1,G1,56.06500,-3.26610,8.76000,2,1,0,2,0,8,0,0,0,0,0.00,42.97473183758,0.00000000000,2.00000000000
A-3462,beta-alanine,"InChI=1S/C3H7NO2/c4-2-1-3(5)6/h1-2,4H2,(H,5,6)",UCMIRNVEIXFBKS-UHFFFAOYSA-N,NCCC(O)=O,0.78654804460,0.00000000000,1,G1,89.09400,-0.58020,21.30720,6,2,2,3,2,36,0,0,0,0,63.32,35.76478180588,2.83125710993,52.75488750216
A-3463,"6-methoxy-2-N-methylpyridine-2,3-diamine dihydrochloride","InChI=1S/C7H11N3O.2ClH/c1-9-7-5(8)3-4-6(10-7)11-2;;/h3-4H,8H2,1-2H3,(H,9,10);2*1H",GYLCRBBRGGGHBS-UHFFFAOYSA-N,[H+].[H+].[Cl-].[Cl-].CNc1nc(OC)ccc1N,0.38192309110,0.00000000000,1,G1,226.10700,-5.05290,46.97210,13,4,2,6,2,76,1,0,0,1,60.17,92.66001668345,-0.00000015125,265.99065509744
A-3464,2-(sec-butylamino)ethanol,"InChI=1S/C6H15NO/c1-3-6(2)7-4-5-8/h6-8H,3-5H2,1-2H3",YTVUVYDVQNALCM-UHFFFAOYSA-N,CCC(C)NCCO,0.66670093370,0.00000000000,1,G1,117.19200,0.36680,34.84150,8,2,2,2,4,50,0,0,0,0,32.26,50.90805753562,2.86206559831,47.79319390448
A-3467,"bis(2-hydroxypropane-1,2,3-tricarboxylic acid); tris(piperazine)","InChI=1S/C6H8O7.C4H10N2/c7-3(8)1-6(13,5(11)12)2-4(9)10;1-2-6-4-3-5-1/h13H,1-2H2,(H,7,8)(H,9,10)(H,11,12);5-6H,1-4H2",SWDXALWLRYIJHK-UHFFFAOYSA-N,OC(=O)CC(O)(CC(O)=O)C(O)=O.C1CNCCN1,0.28794141830,0.00000000000,1,G1,278.26100,-2.06930,62.83060,19,6,6,9,5,110,0,1,1,1,156.19,108.78495573353,0.00000044308,300.33008234782
A-3468,disodium disulphite,"InChI=1S/2Na.H2O5S2/c;;1-6(2)5-7(3)4/h;;(H,1,2)(H,3,4)/q2*+1;/p-2",LDTLADDKFLAYJA-UHFFFAOYSA-L,[Na+].[Na+].[O-][S](=O)O[S]([O-])=O,0.45339108240,0.00000000000,1,G1,190.10900,-7.40080,18.92460,9,5,0,9,2,44,0,0,0,0,89.49,101.48764480414,-0.00000018000,89.13111721021
A-3469,(E)-1-methyl-3-nitro-2-(oxolan-3-ylmethyl)guanidine,"InChI=1S/C7H14N4O3/c1-8-7(10-11(12)13)9-4-6-2-3-14-5-6/h6H,2-5H2,1H3,(H2,8,9,10)",YKBZOVFACRVRJN-UHFFFAOYSA-N,CN=C(NCC1CCOC1)N[N+]([O-])=O,-0.56941471780,0.12720389128,4,G5,202.21400,-0.62040,50.41780,14,4,2,7,3,80,0,1,1,1,88.79,81.65477638600,2.23013771602,224.97479698686
A-3472,ethyl 3-ethoxypropanoate,"InChI=1S/C7H14O3/c1-3-9-6-5-7(8)10-4-2/h3-6H2,1-2H3",BHXIWUJLHYHGSJ-UHFFFAOYSA-N,CCOCCC(=O)OCC,-0.43170851780,0.00555425890,2,G3,146.18600,0.97610,37.74300,10,3,0,3,5,60,0,0,0,0,35.53,61.31751627327,3.05237518905,90.85200900961
A-3473,N-methylcyclohexanamine,"InChI=1S/C7H15N/c1-8-7-5-3-2-4-6-7/h7-8H,2-6H2,1H3",XTUVJUMINZSXGF-UHFFFAOYSA-N,CNC1CCCCC1,-0.32146801290,0.00000000000,1,G1,113.20400,1.53850,35.93270,8,1,1,1,1,48,0,1,1,1,12.03,51.47293474429,2.12501625541,55.40716557156
A-3475,methyl cyanoacetate,"InChI=1S/C4H5NO2/c1-7-4(6)2-3-5/h2H2,1H3",ANGDWNBGPBMQHW-UHFFFAOYSA-N,COC(=O)CC#N,-0.26363168570,0.16919135150,2,G3,99.08900,0.07308,22.24600,7,3,0,3,1,38,0,0,0,0,50.09,41.50172438204,3.22938416137,102.74764726769
A-3476,sodium 2-hydroxyethanesulfonate,"InChI=1S/C2H6O4S.Na/c3-1-2-7(4,5)6;/h3H,1-2H2,(H,4,5,6);/q;+1/p-1",LADXKQRVAFSPTR-UHFFFAOYSA-M,[Na+].OCC[S]([O-])(=O)=O,0.55694221410,0.00000000000,1,G1,148.11500,-4.47210,21.65000,8,4,1,6,2,44,0,0,0,0,77.43,69.94046252717,0.00000000000,126.97373660251
A-3477,"N,N,N-triethylethanaminium 1,1,2,2,3,3,4,4,5,5,6,6,7,7,8,8,8-heptadecafluorooctane-1-sulfonate","InChI=1S/C8HF17O3S.C8H20N/c9-1(10,3(13,14)5(17,18)7(21,22)23)2(11,12)4(15,16)6(19,20)8(24,25)29(26,27)28;1-5-9(6-2,7-3)8-4/h(H,26,27,28);5-8H2,1-4H3/q;+1/p-1",JHDXAQHGAJXNBY-UHFFFAOYSA-M,CC[N+](CC)(CC)CC.[O-][S](=O)(=O)C(F)(F)C(F)(F)C(F)(F)C(F)(F)C(F)(F)C(F)(F)C(F)(F)C(F)(F)F,-0.07218089880,0.00000000000,1,G1,629.37300,6.38130,92.80560,38,3,0,22,11,232,0,0,0,0,57.20,203.63175691389,0.00000000000,877.87432529527
A-3480,disodium (Z)-1-(octadec-9-enyl) 2-sulphonatosuccinate,"InChI=1S/C22H40O7S.2Na/c1-2-3-4-5-6-7-8-9-10-11-12-13-14-15-16-17-18-29-22(25)20(19-21(23)24)30(26,27)28;;/h9-10,20H,2-8,11-19H2,1H3,(H,23,24)(H,26,27,28);;/q;2*+1/p-2/b10-9+;;",IUCZYYMCWMKCMD-TTWKNDKESA-L,[Na+].[Na+].CCCCCCCC/C=C/CCCCCCCCOC(=O)C(CC([O-])=O)[S]([O-])(=O)=O,-0.96242691200,0.00000000000,1,G1,492.58600,-2.37110,113.52020,32,7,0,10,20,176,0,0,0,0,123.63,238.39969083523,-0.00000420499,595.08675062225
A-3481,ethyl 2-cyanoacetate,"InChI=1S/C5H7NO2/c1-2-8-5(7)3-4-6/h2-3H2,1H3",ZIUSEGSNTOUIPT-UHFFFAOYSA-N,CCOC(=O)CC#N,-0.32761240690,0.20949558809,3,G5,113.11600,0.46318,26.86300,8,3,0,3,2,44,0,0,0,0,50.09,47.86666649644,3.22568572583,114.08730238949
A-3482,"4-[4-[[2,5-dimethoxy-4-[[2-(sulphooxy)ethyl]sulphonyl]phenyl]azo]-4,5-dihydro-3-methyl-5-oxo-1H-pyrazol-1-yl]benzenesulphonic acid, sodium salt","InChI=1S/C20H22N4O12S3.2Na/c1-12-19(20(25)24(23-12)13-4-6-14(7-5-13)38(28,29)30)22-21-15-10-17(35-3)18(11-16(15)34-2)37(26,27)9-8-36-39(31,32)33;;/h4-7,10-11,19H,8-9H2,1-3H3,(H,28,29,30)(H,31,32,33);;/q;2*+1/p-2",JDPMQBDNRSLOKS-UHFFFAOYSA-L,[Na+].[Na+].COc1cc(c(OC)cc1N=NC2C(=NN(C2=O)c3ccc(cc3)[S]([O-])(=O)=O)C)[S](=O)(=O)CCO[S]([O-])(=O)=O,-0.08984303350,0.00000000000,1,G1,650.57700,-5.25860,130.55220,41,15,0,21,11,212,2,0,1,3,233.62,279.89490441991,0.00000420250,1663.48748256056
A-3483,"disodium hydrogen 2-hydroxypropane-1,2,3-tricarboxylate","InChI=1S/C6H8O7.2Na/c7-3(8)1-6(13,5(11)12)2-4(9)10;;/h13H,1-2H2,(H,7,8)(H,9,10)(H,11,12);;/q;2*+1/p-2",CEYULKASIQJZGP-UHFFFAOYSA-L,[Na+].[Na+].OC(=O)C(O)(CC([O-])=O)CC([O-])=O,0.34541300720,0.00000000000,1,G1,236.08700,-9.90990,31.83360,15,6,2,9,5,74,0,0,0,0,137.79,129.05226215415,-0.00000072000,235.86496481873
A-3487,2-methylpentanedinitrile,"InChI=1S/C6H8N2/c1-6(5-8)3-2-4-7/h6H,2-3H2,1H3",FPPLREPCQJZDAQ-UHFFFAOYSA-N,CC(CCC#N)C#N,-0.31550074020,0.00000000000,1,G1,108.14400,1.44986,29.62400,8,2,0,2,2,42,0,0,0,0,47.58,49.34912096275,3.17952211678,126.44441158953
A-3488,1-butoxypropan-2-ol,"InChI=1S/C7H16O2/c1-3-4-5-9-6-7(2)8/h7-8H,3-6H2,1-2H3",RWNUSVWFHDHRCJ-UHFFFAOYSA-N,CCCCOCC(C)O,-0.40523796680,0.00000000000,1,G1,132.20300,1.18390,37.40780,9,2,1,2,5,56,0,0,0,0,29.46,56.83668269591,2.74669090686,52.87784055858
A-3490,"2H-1,3-dioxol-2-one",InChI=1S/C3H2O3/c4-3-5-1-2-6-3/h1-2H,VAYTZRYEBVHVLE-UHFFFAOYSA-N,O=C1OC=CO1,0.77707654290,0.00000000000,1,G1,86.04600,0.23280,17.24400,6,3,0,3,0,32,1,0,0,1,43.35,33.19207130763,3.40624607748,143.80116838471
A-3492,sodium [(2-methylpropoxy)methanethioyl]sulfanide,"InChI=1S/C5H10OS2.Na/c1-3-4(2)6-5(7)8;/h4H,3H2,1-2H3,(H,7,8);/q;+1",LRHOHFCSKBRDFH-UHFFFAOYSA-N,[Na+].CCC(C)OC(S)=S,0.46887687930,0.00000000000,1,G1,173.25800,-0.97980,42.42200,9,2,1,4,2,48,0,0,0,0,9.23,89.23981124824,0.00000000000,87.02718014856
A-3495,3-(2-hydroxyethyl)-p-phenylenediammonium sulphate,"InChI=1S/C8H12N2O.H2O4S/c1-5(11)7-4-6(9)2-3-8(7)10;1-5(2,3)4/h2-5,11H,9-10H2,1H3;(H2,1,2,3,4)/p-2",PYHIZOBOFKBJLD-UHFFFAOYSA-L,CC(O)c1cc(N)ccc1N.[O-][S]([O-])(=O)=O,-0.68563679010,0.00000000000,1,G1,248.26000,-0.43370,56.37520,16,7,3,8,1,92,1,0,0,1,152.53,93.27300728634,0.00000038455,435.74193389572
A-3496,"4-methyl-1,3-oxazole-5-carbonitrile","InChI=1S/C5H4N2O/c1-4-5(2-6)8-3-7-4/h3H,1H3",JZSLPQXOLZCAME-UHFFFAOYSA-N,Cc1ncoc1C#N,-0.32455573300,0.00000000000,1,G1,108.10000,0.85470,25.95500,8,3,0,3,0,40,1,0,0,1,49.82,46.56784427478,3.15480364427,220.57769604357
A-3497,cadmium dinitrate,"InChI=1S/Cd.2HNO3/c;2*2-1(3)4/h;2*(H,2,3,4)/q+2;;",IZIPRBSCGMISKX-UHFFFAOYSA-N,[Cd++].O[N+]([O-])=O.O[N+]([O-])=O,0.32763613180,0.00000000000,1,G1,238.43600,-0.69790,17.56180,9,4,2,9,0,48,0,0,0,0,126.74,68.46518758887,-0.00000007200,69.05865002596
A-3498,sodium (ethoxymethanethioyl)sulfanide,"InChI=1S/C3H6OS2.Na/c1-2-4-3(5)6;/h2H2,1H3,(H,5,6);/q;+1/p-1",RZFBEFUNINJXRQ-UHFFFAOYSA-M,[Na+].CCOC([S-])=S,0.54433816490,0.00635598275,2,G3,144.19600,-2.14130,31.58900,7,3,0,4,1,36,0,0,0,0,9.23,76.50992701945,0.00000000000,56.89659695224
A-3500,"octane-1,8-diamine",InChI=1S/C8H20N2.2ClH/c9-7-5-3-1-2-4-6-8-10;;/h1-10H2;2*1H,ZFLWZOGXFQNIMT-UHFFFAOYSA-N,[Cl-].[Cl-].[NH3+]CCCCCCCC[NH3+],0.36214217680,0.03034892020,2,G3,217.18400,-6.18120,43.21220,12,0,2,4,7,78,0,0,0,0,55.28,88.27981372773,-0.00000040500,55.01955000865
A-3501,"(3S,4aS,8aR)-N-tert-butyl-3,4,4a,5,6,7,8,8a-octahydro-1H-isoquinolin-2-ium-3-carboxamide","InChI=1S/C14H26N2O/c1-14(2,3)16-13(17)12-8-10-6-4-5-7-11(10)9-15-12/h10-12,15H,4-9H2,1-3H3,(H,16,17)/p+1/t10-,11-,12-/m0/s1",UPZBXVBPICTBDP-SRVKXCTJSA-O,CC(C)(C)NC(=O)[C@@H]1C[C@@H]2CCCC[C@H]2C[NH2+]1,-2.16160936110,0.00000000000,1,G1,239.38300,1.04320,68.54110,17,1,2,3,1,98,0,2,2,2,45.71,104.73308267519,1.88633950382,282.43702210552
A-3502,"hexane-1,6-diol","InChI=1S/C6H14O2/c7-5-3-1-2-4-6-8/h7-8H,1-6H2",XXMIOPMDWAUFGU-UHFFFAOYSA-N,OCCCCCCO,1.62644071840,0.00000000000,1,G1,118.17600,0.53140,32.63960,8,2,2,2,5,50,0,0,0,0,40.46,50.15242910420,2.53006045688,31.50977500433
A-3503,2-(dimethylamino)ethyl 2-methylprop-2-enoate,"InChI=1S/C8H15NO2/c1-7(2)8(10)11-6-5-9(3)4/h1,5-6H2,2-4H3",JKNCOURZONDCGV-UHFFFAOYSA-N,CN(C)CCOC(=O)C(C)=C,0.50248154920,0.15051499780,2,G3,157.21300,0.66730,44.32700,11,3,0,3,4,64,0,0,0,0,29.54,67.63914379618,3.39721803878,152.17104785693
A-3504,"disodium 2,3-dihydroxybutanedioate","InChI=1S/C4H6O6.2Na/c5-1(3(7)8)2(6)4(9)10;;/h1-2,5-6H,(H,7,8)(H,9,10);;/q;2*+1/p-2",HELHAJAZNSDZJO-UHFFFAOYSA-L,[Na+].[Na+].OC(C(O)C([O-])=O)C([O-])=O,0.41105635730,0.00000000000,1,G1,194.05000,-10.78400,22.02760,12,6,2,8,3,58,0,0,0,0,120.72,112.16085582531,-0.00000040500,141.62707505625
A-3505,triethyl phosphate,"InChI=1S/C6H15O4P/c1-4-8-11(7,9-5-2)10-6-3/h4-6H2,1-3H3",DQWPFSLDHJDLRL-UHFFFAOYSA-N,CCO[P](=O)(OCC)OCC,0.43852652340,0.00000000000,1,G1,182.15600,2.20400,42.48450,11,4,0,5,6,68,0,0,0,0,44.76,67.45420796281,3.90847194978,112.76953528987