ID,Name,InChI,InChIKey,SMILES,Solubility,SD,Ocurrences,Group,MolWt,MolLogP,MolMR,HeavyAtomCount,NumHAcceptors,NumHDonors,NumHeteroatoms,NumRotatableBonds,NumValenceElectrons,NumAromaticRings,NumSaturatedRings,NumAliphaticRings,RingCount,TPSA,LabuteASA,BalabanJ,BertzCT
A-177,"sodium 3-{[9,10-dioxo-4-({2,4,6-trimethyl-3-[(sodiooxy)sulfonyl]phenyl}amino)-9,10-dihydroanthracen-1-yl]amino}-2,4,6-trimethylbenzene-1-sulfonate","InChI=1S/C32H30N2O8S2.2Na/c1-15-13-17(3)31(43(37,38)39)19(5)27(15)33-23-11-12-24(26-25(23)29(35)21-9-7-8-10-22(21)30(26)36)34-28-16(2)14-18(4)32(20(28)6)44(40,41)42;;/h7-14,33-34H,1-6H3,(H,37,38,39)(H,40,41,42);;/q;2*+1/p-2",UHXQPQCJDDSMCB-UHFFFAOYSA-L,[Na+].[Na+].Cc1cc(C)c(c(C)c1Nc2ccc(Nc3c(C)cc(C)c(c3C)[S]([O-])(=O)=O)c4C(=O)c5ccccc5C(=O)c24)[S]([O-])(=O)=O,-1.79226117040,0.00000000000,1,G1,678.69600,-0.38408,163.54680,46,10,2,14,6,228,4,0,1,5,172.60,312.02323133214,0.00000288000,2027.66360299464
A-178,"4-benzoylbenzene-1,2,3-triol","InChI=1S/C13H10O4/c14-10-7-6-9(12(16)13(10)17)11(15)8-4-2-1-3-5-8/h1-7,14,16-17H",HTQNYBBTZSBWKL-UHFFFAOYSA-N,Oc1ccc(c(O)c1O)C(=O)c2ccccc2,-3.34510782380,0.00000000000,1,G1,230.21900,2.03440,61.31090,17,4,3,4,2,86,2,0,0,2,77.76,97.39766279659,2.49215413566,561.13218751736
A-182,"3-[(2E)-dodec-2-en-1-yl]oxolane-2,5-dione; 3-[(2Z)-dodec-2-en-1-yl]oxolane-2,5-dione","InChI=1S/C16H26O3/c1-2-3-4-5-6-7-8-9-10-11-12-14-13-15(17)19-16(14)18/h10-11,14H,2-9,12-13H2,1H3/b11-10+",UYCICMIUKYEYEU-ZHACJKMWSA-N,CCCCCCCCC\C=C\CC1CC(=O)OC1=O,-4.42550324490,0.00000000000,1,G1,266.38100,4.16310,75.57300,19,3,0,3,10,108,0,1,1,1,43.37,115.95453798766,1.93248346359,307.11590649725
A-183,"dihydro-3-(tetrapropenyl)furan-2,5-dione","InChI=1S/C16H26O3/c1-10(2)6-11(3)7-12(4)8-13(5)14-9-15(17)19-16(14)18/h8,10-12,14H,6-7,9H2,1-5H3/b13-8+",WBRBLKRDTHYRRV-MDWZMJQESA-N,CC(C)CC(C)CC(C)\C=C(/C)C1CC(=O)OC1=O,-4.42550324490,0.15051499780,2,G3,266.38100,3.73080,75.36300,19,3,0,3,6,108,0,1,1,1,43.37,115.95453798766,2.53340570524,368.19033535711
A-184,{2-hydroxy-3-[(9Z)-octadec-9-enoyloxy]propoxy}boronic acid 2-hydroxy-3-{[hydroxy({2-hydroxy-3-[(9Z)-octadec-9-enoyloxy]propoxy})boranyl]oxy}propyl (9Z)-octadec-9-enoate 3-{[bis({2-hydroxy-3-[(9Z)-octadec-9-enoyloxy]propoxy})boranyl]oxy}-2-hydroxypropyl (9Z)-octadec-9-enoate,"InChI=1S/C63H117BO12.C42H79BO9.C21H41BO6/c1-4-7-10-13-16-19-22-25-28-31-34-37-40-43-46-49-61(68)71-52-58(65)55-74-64(75-56-59(66)53-72-62(69)50-47-44-41-38-35-32-29-26-23-20-17-14-11-8-5-2)76-57-60(67)54-73-63(70)51-48-45-42-39-36-33-30-27-24-21-18-15-12-9-6-3;1-3-5-7-9-11-13-15-17-19-21-23-25-27-29-31-33-41(46)49-35-39(44)37-51-43(48)52-38-40(45)36-50-42(47)34-32-30-28-26-24-22-20-18-16-14-12-10-8-6-4-2;1-2-3-4-5-6-7-8-9-10-11-12-13-14-15-16-17-21(24)27-18-20(23)19-28-22(25)26/h25-30,58-60,65-67H,4-24,31-57H2,1-3H3;17-20,39-40,44-45,48H,3-16,21-38H2,1-2H3;9-10,20,23,25-26H,2-8,11-19H2,1H3/b28-25-,29-26-,30-27-;19-17-,20-18-;10-9-",VBCPUMZLCRUHTJ-VVUJETCRSA-N,CCCCCCCC\C=C/CCCCCCCC(=O)OCC(O)COB(O)O.CCCCCCCC\C=C/CCCCCCCC(=O)OCC(O)COB(O)OCC(O)COC(=O)CCCCCCC\C=C/CCCCCCCC.CCCCCCCC\C=C/CCCCCCCC(=O)OCC(O)COB(OCC(O)COC(=O)CCCCCCC\C=C/CCCCCCCC)OCC(O)COC(=O)CCCCCCC\C=C/CCCCCCCC,-5.34570515800,0.00000000000,1,G1,2216.69100,29.64000,638.13720,156,27,9,30,120,912,0,0,0,0,395.25,952.49335989809,-0.00000250740,2927.06011800347
A-188,4-(decanoyloxy)benzoic acid,"InChI=1S/C17H24O4/c1-2-3-4-5-6-7-8-9-16(18)21-15-12-10-14(11-13-15)17(19)20/h10-13H,2-9H2,1H3,(H,19,20)",QTMHHQFADWIZCP-UHFFFAOYSA-N,CCCCCCCCCC(=O)Oc1ccc(cc1)C(O)=O,-5.42454754970,0.00000000000,1,G1,292.37500,4.43090,81.64630,21,3,1,4,10,116,1,0,0,1,63.60,125.67658955965,2.16862268900,436.60825944942
A-189,"4,4,13,13-tetraethoxy-3,14-dioxa-8,9-dithia-4,13-disilahexadecane","InChI=1S/C18H42O6S2Si2/c1-7-19-27(20-8-2,21-9-3)17-13-15-25-26-16-14-18-28(22-10-4,23-11-5)24-12-6/h7-18H2,1-6H3",FBBATURSCRIBHN-UHFFFAOYSA-N,CCO[Si](CCCSSCCC[Si](OCC)(OCC)OCC)(OCC)OCC,-5.67654180860,0.00000000000,1,G1,474.83400,5.24480,125.02800,28,8,0,10,21,170,0,0,0,0,55.38,182.77266615090,4.13794054051,289.99841277002
A-191,3-methylbutyl (2E)-3-(4-methoxyphenyl)prop-2-enoate,"InChI=1S/C15H20O3/c1-12(2)10-11-18-15(16)9-6-13-4-7-14(17-3)8-5-13/h4-9,12H,10-11H2,1-3H3/b9-6+",UBNYRXMKIIGMKK-RMKNXTFCSA-N,COc1ccc(\C=C\C(=O)OCCC(C)C)cc1,-5.49192521040,0.00000000000,1,G1,248.32200,3.29770,72.44200,18,3,0,3,6,98,1,0,0,1,35.53,108.41489167594,2.39834076168,390.70467038436
A-192,2-(hexadecanoylamino)acetic acid,"InChI=1S/C18H35NO3/c1-2-3-4-5-6-7-8-9-10-11-12-13-14-15-17(20)19-16-18(21)22/h2-16H2,1H3,(H,19,20)(H,21,22)",KVTFEOAKFFQCCX-UHFFFAOYSA-N,CCCCCCCCCCCCCCCC(=O)NCC(O)=O,-5.59312262190,0.04458719509,3,G5,313.48200,4.66850,90.95750,22,2,2,4,16,130,0,0,0,0,66.40,135.61040710846,3.10759351366,279.50583371712
A-193,"(1E,5E,9E)-cyclododeca-1,5,9-triene","InChI=1S/C12H18/c1-2-4-6-8-10-12-11-9-7-5-3-1/h1-2,7-10H,3-6,11-12H2/b2-1-,9-7-,10-8+",ZOLLIQAKMYWTBR-UDIJVJLMSA-N,C\1C\C=C/CC\C=C/CC/C=C1,-5.36515625410,0.19897000430,2,G3,162.27600,4.00920,55.12200,12,0,0,0,0,66,0,0,1,1,0.00,75.67897403611,2.30411059849,121.19311924156
A-195,"bis({[bis(3,5,5-trimethylhexyl)carbamothioyl]sulfanyl})zinc","InChI=1S/2C19H39NS2.Zn/c2*1-15(13-18(3,4)5)9-11-20(17(21)22)12-10-16(2)14-19(6,7)8;/h2*15-16H,9-14H2,1-8H3,(H,21,22);/q;;+2/p-2",YRZWCIIGZCKHBM-UHFFFAOYSA-L,CC(CCN(CCC(C)CC(C)(C)C)C(=S)S[Zn]SC(=S)N(CCC(C)CC(C)(C)C)CCC(C)CC(C)(C)C)CC(C)(C)C,-6.10252693930,0.00000000000,1,G1,754.69800,13.38870,214.93600,45,4,0,7,18,264,0,0,0,0,6.48,308.14172785808,5.34545540362,714.64941884206
A-196,2-[4-(bromomethyl)phenyl]benzonitrile,"InChI=1S/C14H10BrN/c15-9-11-5-7-12(8-6-11)14-4-2-1-3-13(14)10-16/h1-8H,9H2",LFFIEVAMVPCZNA-UHFFFAOYSA-N,BrCc1ccc(cc1)c2ccccc2C#N,-6.65664910920,0.00000000000,1,G1,272.14500,4.12018,69.22400,16,1,0,2,2,78,2,0,0,2,23.79,103.47850884146,2.46874721208,523.17675954396
A-197,"2,2,6,6-tetramethylpiperidin-4-yl hexadecanoate 2,2,6,6-tetramethylpiperidin-4-yl octadecanoate","InChI=1S/C27H53NO2.C25H49NO2/c1-6-7-8-9-10-11-12-13-14-15-16-17-18-19-20-21-25(29)30-24-22-26(2,3)28-27(4,5)23-24;1-6-7-8-9-10-11-12-13-14-15-16-17-18-19-23(27)28-22-20-24(2,3)26-25(4,5)21-22/h24,28H,6-23H2,1-5H3;22,26H,6-21H2,1-5H3",KABHMUPUYPTLHI-UHFFFAOYSA-N,CCCCCCCCCCCCCCCCCC(=O)OC1CC(C)(C)NC(C)(C)C1.CCCCCCCCCCCCCCCC(=O)OC2CC(C)(C)NC(C)(C)C2,-6.21452489520,1.00000000000,2,G2,819.39800,15.42040,250.67340,58,6,2,6,32,344,0,2,2,2,76.66,361.99532673484,0.00000058138,988.84852755604
A-198,N-(2-ethylhexyl)-7-methyloctanamide,"InChI=1S/C17H35NO/c1-5-7-12-16(6-2)14-18-17(19)13-10-8-9-11-15(3)4/h15-16H,5-14H2,1-4H3,(H,18,19)",CYJLFSMDQYFKRD-UHFFFAOYSA-N,CCCCC(CC)CNC(=O)CCCCCC(C)C,-5.73154525300,0.00000000000,1,G1,269.47300,4.92550,84.23870,19,1,1,2,12,114,0,0,0,0,29.10,120.28970914183,3.51254410984,213.30760443279
A-199,Doramectin,"InChI=1S/C50H74O14/c1-27-13-12-16-34-26-57-47-42(51)30(4)21-37(50(34,47)54)48(53)60-36-22-35(63-49(25-36)20-19-29(3)45(64-49)33-14-10-9-11-15-33)18-17-28(2)44(27)61-41-24-39(56-8)46(32(6)59-41)62-40-23-38(55-7)43(52)31(5)58-40/h12-13,16-17,19-21,27,29,31-33,35-47,51-52,54H,9-11,14-15,18,22-26H2,1-8H3/b13-12+,28-17+,34-16+/t27-,29-,31-,32-,35+,36-,37-,38-,39-,40-,41-,42+,43-,44?,45-,46?,47+,49+,50+/m0/s1",QLFZZSKTJWDQOS-NJPOTTGESA-N,CO[C@H]1C[C@@H](O[C@@H](C)[C@@H]1O)OC2[C@H](C)O[C@H](C[C@@H]2OC)OC3[C@@H](C)/C=C/C=C/4CO[C@@H]5[C@H](O)C(=C[C@@H](C(=O)O[C@H]6C[C@@H](C\C=C3/C)O[C@@]7(C6)O[C@@H]([C@@H](C)C=C7)C8CCCCC8)[C@]45O)C,-7.55588151370,0.00000000000,1,G1,899.12800,5.91160,234.42540,64,14,3,14,7,358,0,5,8,8,170.06,378.80642589581,1.08100891050,1787.63013204258
A-201,"1,1':4',1''-terphenyl",InChI=1S/C18H14/c1-3-7-15(8-4-1)17-11-13-18(14-12-17)16-9-5-2-6-10-16/h1-14H,XJKSTNDFUHDPQJ-UHFFFAOYSA-N,c1ccc(cc1)c2ccc(cc2)c3ccccc3,-6.18333584800,0.46183207600,2,G3,230.31000,5.02060,77.31400,18,0,0,0,2,86,3,0,0,3,0.00,107.54559153163,1.95146616867,548.71606554751
A-203,pyrene,InChI=1S/C16H10/c1-3-11-7-9-13-5-2-6-14-10-8-12(4-1)15(11)16(13)14/h1-10H,BBEAQIROQSPTKN-UHFFFAOYSA-N,c1cc2ccc3cccc4ccc(c1)c2c34,-6.17879661560,0.05882001898,3,G5,202.25600,4.58400,70.14600,16,0,0,0,0,74,4,0,0,4,0.00,93.45542159484,2.50595568936,666.61980581688
A-204,"1,4-dibutyl benzene-1,4-dicarboxylate","InChI=1S/C16H22O4/c1-3-5-11-19-15(17)13-7-9-14(10-8-13)16(18)20-12-6-4-2/h7-10H,3-6,11-12H2,1-2H3",LQLQDKBJAIILIQ-UHFFFAOYSA-N,CCCCOC(=O)c1ccc(cc1)C(=O)OCCCC,-6.40319542000,0.68811136503,6,G4,278.34800,3.60040,76.82300,20,4,0,4,8,110,1,0,0,1,52.60,119.63095892256,2.50371239110,381.60794216891
A-208,1-(2-ethylbutyl)cyclohexane-1-carbonitrile,"InChI=1S/C13H23N/c1-3-12(4-2)10-13(11-14)8-6-5-7-9-13/h12H,3-10H2,1-2H3",DRMOLJPDSCAGCC-UHFFFAOYSA-N,CCC(CC)CC1(CCCCC1)C#N,-6.58733823210,0.00000000000,1,G1,193.33400,4.28678,59.82000,14,1,0,1,4,80,0,1,1,1,23.79,88.50530492853,2.55666338969,191.77132754727
A-209,1-(4-methoxyphenyl)-4-(4-nitrophenyl)piperazine,"InChI=1S/C17H19N3O3/c1-23-17-8-6-15(7-9-17)19-12-10-18(11-13-19)14-2-4-16(5-3-14)20(21)22/h2-9H,10-13H2,1H3",AVCKOFMRPAJEPN-UHFFFAOYSA-N,COc1ccc(cc1)N2CCN(CC2)c3ccc(cc3)[N+]([O-])=O,-6.92901303460,0.00000000000,1,G1,313.35700,2.93000,90.51640,23,5,0,6,4,120,2,1,1,3,58.85,134.59356503643,1.61770349573,662.48787709311
A-212,bis(8-methylnonyl) sebacate,"InChI=1S/C30H58O4/c1-27(2)21-15-9-7-13-19-25-33-29(31)23-17-11-5-6-12-18-24-30(32)34-26-20-14-8-10-16-22-28(3)4/h27-28H,5-26H2,1-4H3",OAXZVLMNNOOMGN-UHFFFAOYSA-N,CC(C)CCCCCCCOC(=O)CCCCCCCCC(=O)OCCCCCCCC(C)C,-7.25239450180,0.27545373440,2,G3,482.79000,9.18680,143.93400,34,4,0,4,25,202,0,0,0,0,52.60,211.87270700443,3.28065931484,416.72168224767
A-213,"6'-(dibutylamino)-3'-methyl-2'-(phenylamino)-3H-spiro[2-benzofuran-1,9'-xanthene]-3-one","InChI=1S/C35H36N2O3/c1-4-6-19-37(20-7-5-2)26-17-18-29-33(22-26)39-32-21-24(3)31(36-25-13-9-8-10-14-25)23-30(32)35(29)28-16-12-11-15-27(28)34(38)40-35/h8-18,21-23,36H,4-7,19-20H2,1-3H3",XAAILNNJDMIMON-UHFFFAOYSA-N,CCCCN(CCCC)c1ccc2c(Oc3cc(C)c(Nc4ccccc4)cc3C25OC(=O)c6ccccc56)c1,-7.40425035750,0.32461853470,3,G5,532.68400,8.71322,161.18820,40,5,1,5,9,204,4,0,2,6,50.80,236.30369510186,1.51269215500,1540.02318747676
A-215,"2,2-difluoro-1,3-benzodioxole-4-carbaldehyde",InChI=1S/C8H4F2O3/c9-8(10)12-6-3-1-2-5(4-11)7(6)13-8/h1-4H,NIBFJPXGNVPNHK-UHFFFAOYSA-N,FC1(F)Oc2cccc(C=O)c2O1,-2.15583335740,0.00000000000,1,G1,186.11300,1.82060,38.03250,13,3,0,5,1,68,1,0,1,2,35.53,71.87513955967,2.50653091497,362.40681376074
A-216,"1-amino-4-(ethylamino)-9,10-dioxo-9,10-dihydroanthracene-2-carbonitrile","InChI=1S/C17H13N3O2/c1-2-20-12-7-9(8-18)15(19)14-13(12)16(21)10-5-3-4-6-11(10)17(14)22/h3-7,20H,2,19H2,1H3",ATXPWKWYLDEURI-UHFFFAOYSA-N,CCNc1cc(C#N)c(N)c2C(=O)c3ccccc3C(=O)c12,-7.63828059050,0.00000000000,1,G1,291.31000,2.34768,83.04010,22,5,2,5,2,108,2,0,1,3,95.98,126.91275350619,2.38680995421,862.93826404711
A-219,(3-aminopropyl)[(9Z)-octadec-9-en-1-yl]amine; bis((9Z)-octadec-9-enoic acid),"InChI=1S/C21H44N2.2C18H34O2/c1-2-3-4-5-6-7-8-9-10-11-12-13-14-15-16-17-20-23-21-18-19-22;2*1-2-3-4-5-6-7-8-9-10-11-12-13-14-15-16-17-18(19)20/h9-10,23H,2-8,11-22H2,1H3;2*9-10H,2-8,11-17H2,1H3,(H,19,20)/b3*10-9-",VTXWSJAEIWTHCL-DJNDIFCPSA-N,CCCCCCCC\C=C/CCCCCCCCNCCCN.CCCCCCCC\C=C/CCCCCCCC(O)=O.CCCCCCCC\C=C/CCCCCCCC(O)=O,-8.25019205990,0.00000000000,1,G1,889.53300,18.17930,280.16870,63,4,4,6,49,374,0,0,0,0,112.65,393.92012722965,-0.00000086023,883.09300248619
A-220,"2-ethylhexyl 4-[(4-{[4-(tert-butylcarbamoyl)phenyl]amino}-6-[(4-{[(2-ethylhexyl)oxy]carbonyl}phenyl)amino]-1,3,5-triazin-2-yl)amino]benzoate","InChI=1S/C44H59N7O5/c1-8-12-14-30(10-3)28-55-39(53)33-18-24-36(25-19-33)46-42-48-41(45-35-22-16-32(17-23-35)38(52)51-44(5,6)7)49-43(50-42)47-37-26-20-34(21-27-37)40(54)56-29-31(11-4)15-13-9-2/h16-27,30-31H,8-15,28-29H2,1-7H3,(H,51,52)(H3,45,46,47,48,49,50)",OSCJHTSDLYVCQC-UHFFFAOYSA-N,CCCCC(CC)COC(=O)c1ccc(Nc2nc(Nc3ccc(cc3)C(=O)NC(C)(C)C)nc(Nc4ccc(cc4)C(=O)OCC(CC)CCCC)n2)cc1,-8.18525876530,0.41195437045,2,G3,766.00000,10.37710,223.39730,56,11,4,12,21,300,4,0,0,4,156.46,331.56640380523,1.50095206614,1746.28127719826
A-222,dioxovanadium,InChI=1S/2O.V,GRUMUEUJTSXQOI-UHFFFAOYSA-N,O=[V]=O,-4.40025009120,1.52890542202,4,G4,82.94000,-0.24010,1.37300,3,2,0,3,0,17,0,0,0,0,34.14,24.36039623320,3.26598632371,23.77443751082
A-224,1-dodecylpyridin-1-ium chloride,"InChI=1S/C17H30N.ClH/c1-2-3-4-5-6-7-8-9-10-12-15-18-16-13-11-14-17-18;/h11,13-14,16-17H,2-10,12,15H2,1H3;1H/q+1;/p-1",GKQHIYSTBXDYNQ-UHFFFAOYSA-M,[Cl-].CCCCCCCCCCCC[n+]1ccccc1,-0.45391053710,0.00000000000,1,G1,283.88700,1.89900,78.48100,19,0,0,2,11,110,1,0,0,1,3.88,125.39342121235,0.00000324000,273.85037072274
A-225,"2-(2,6-dimethylphenoxy)acetic acid","InChI=1S/C10H12O3/c1-7-4-3-5-8(2)10(7)13-6-9(11)12/h3-5H,6H2,1-2H3,(H,11,12)",MLBCURLNKYKBEQ-UHFFFAOYSA-N,Cc1cccc(C)c1OCC(O)=O,-2.25664453060,0.47913080004,3,G5,180.20300,1.76684,49.04680,13,2,1,3,3,70,1,0,0,1,46.53,76.96047265883,2.80692056174,297.69593883292
A-227,"({bis[(2-ethylhexanoyl)oxy]-2,4-dioxa-3-bora-1,5-dicobaltapentan-3-yl}oxy)cobaltio 2-ethylhexanoate","InChI=1S/3C8H16O2.BO3.3Co/c3*1-3-5-6-7(4-2)8(9)10;2-1(3)4;;;/h3*7H,3-6H2,1-2H3,(H,9,10);;;;/q;;;-3;+1;+2;+3/p-3",HRNSQLGPRFFUNA-UHFFFAOYSA-K,CCCCC(CC)C(=O)O[Co]OB(O[Co])O[Co](OC(=O)C(CC)CCCC)OC(=O)C(CC)CCCC,-1.82545614350,0.00000000000,1,G1,665.22600,6.03740,127.20300,37,9,0,13,23,225,0,0,0,0,106.59,243.45438907701,5.26800535803,600.27219268249
A-228,"disodium 4-[(E)-2-[2,6-dihydroxy-3-(hydroxymethyl)-5-[(E)-2-(4-sulfonatonaphthalen-1-yl)diazen-1-yl]phenyl]diazen-1-yl]naphthalene-1-sulfonate","InChI=1S/C27H20N4O9S2.2Na/c32-14-15-13-22(30-28-20-9-11-23(41(35,36)37)18-7-3-1-5-16(18)20)27(34)25(26(15)33)31-29-21-10-12-24(42(38,39)40)19-8-4-2-6-17(19)21;;/h1-13,28-29,32H,14H2,(H,35,36,37)(H,38,39,40);;/q;2*+1/p-2/b30-22+,31-25+;;",TUQJHVRCALPCHU-CRVUNLCOSA-L,[Na+].[Na+].OCC1=CC(=N/Nc2ccc(c3ccccc23)[S]([O-])(=O)=O)\C(=O)/C(=N/Nc4ccc(c5ccccc45)[S]([O-])(=O)=O)C1=O,-0.81716474440,0.00000000000,1,G1,652.57400,-5.24690,149.47060,44,13,3,17,7,214,5,0,0,5,217.55,293.30585330669,0.00000264500,2360.00603093894
A-229,1-(4-hydroxyphenyl)ethan-1-one,"InChI=1S/C8H8O2/c1-6(9)7-2-4-8(10)5-3-7/h2-5,10H,1H3",TXFPEBPIARQUIG-UHFFFAOYSA-N,CC(=O)c1ccc(O)cc1,-1.13838245110,0.00000000000,1,G1,136.15000,1.59480,38.11130,10,2,1,2,1,52,1,0,0,1,37.30,59.11704320053,3.00340068458,235.93943338088
A-230,calcium magnesium(2+) ion dioxidandiide,InChI=1S/Ca.Mg.2O/q2*+2;2*-2,YLUIKWVQCKSMCF-UHFFFAOYSA-N,[O--].[O--].[Mg++].[Ca++],-1.98835623340,1.86205760786,3,G4,96.38100,-0.99920,12.88100,4,0,0,4,0,16,0,0,0,0,57.00,70.71564842005,0.00000000000,6.00000000000
A-232,disodium 3-[(E)-2-{4-[(E)-2-(7-amino-1-hydroxy-3-sulfonatonaphthalen-2-yl)diazen-1-yl]naphthalen-1-yl}diazen-1-yl]-2-hydroxybenzoate,"InChI=1S/C27H19N5O7S.2Na/c28-15-9-8-14-12-23(40(37,38)39)24(26(34)19(14)13-15)32-30-21-11-10-20(16-4-1-2-5-17(16)21)29-31-22-7-3-6-18(25(22)33)27(35)36;;/h1-13,33-34H,28H2,(H,35,36)(H,37,38,39);;/q;2*+1/p-2",QENJECLVTWIZIG-UHFFFAOYSA-L,[Na+].[Na+].Nc1ccc2cc(c(N=Nc3ccc(N=Nc4cccc(C([O-])=O)c4O)c5ccccc35)c(O)c2c1)[S]([O-])(=O)=O,-2.78682045170,0.00000000000,1,G1,601.50800,-0.90720,142.72570,42,12,3,15,6,200,5,0,0,5,213.25,282.50696770758,0.00000242000,2018.57252398640
A-234,"6,10-dimethylundeca-3,5,9-trien-2-one","InChI=1S/C13H20O/c1-11(2)7-5-8-12(3)9-6-10-13(4)14/h6-7,9-10H,5,8H2,1-4H3/b10-6+,12-9+",JXJIQCXXJGRKRJ-KOOBJXAQSA-N,CC(C)=CCC\C(C)=C\C=C\C(C)=O,-3.29721206680,0.00000000000,1,G1,192.30200,3.82430,62.24300,14,1,0,1,5,78,0,0,0,0,17.07,87.21126940408,3.89675810627,262.96015029037
A-236,"1,3-divinylimidazolidin-2-one","InChI=1S/C7H10N2O/c1-3-8-5-6-9(4-2)7(8)10/h3-4H,1-2,5-6H2",HMYBDZFSXBJDGL-UHFFFAOYSA-N,C=CN1CCN(C=C)C1=O,-1.15588644420,0.00000000000,1,G1,138.17000,1.01100,39.20200,10,1,0,3,2,54,0,1,1,1,23.55,60.22505593676,2.65533835750,158.44492028996
A-237,2-amino-4-nitrophenol,"InChI=1S/C6H6N2O3/c7-5-3-4(8(10)11)1-2-6(5)9/h1-3,9H,7H2",VLZVIIYRNMWPSN-UHFFFAOYSA-N,Nc1cc(ccc1O)[N+]([O-])=O,-2.20560185660,0.00804907170,2,G3,154.12500,0.88260,39.17360,11,4,2,5,1,58,1,0,0,1,89.39,62.21850329121,3.15154966831,297.87891172430
A-238,magnesium,InChI=1S/Mg/q+2,JLVVSXFLKOJNIY-UHFFFAOYSA-N,[Mg++],-2.40206933830,0.55207893411,3,G4,24.30500,-0.38080,5.75400,1,0,0,1,0,0,0,0,0,0,0.00,23.63837356800,0.00000000000,0.00000000000
A-241,oxocalcium,InChI=1S/Ca.O,ODINCKMPIJJUCX-UHFFFAOYSA-N,O=[Ca],-1.76832687950,0.86626764745,3,G4,56.07700,-0.49960,6.44050,2,1,0,2,0,8,0,0,0,0,17.07,37.06721303913,2.00000000000,2.00000000000
A-242,"5-nitro-1,3-dihydro-2H-benzimidazol-2-one","InChI=1S/C7H5N3O3/c11-7-8-5-2-1-4(10(12)13)3-6(5)9-7/h1-3H,(H2,8,9,11)",DLJZIPVEVJOKHB-UHFFFAOYSA-N,[O-][N+](=O)c1ccc2NC(=O)Nc2c1,-3.27408754740,0.00000000000,1,G1,179.13500,0.76440,45.57380,13,3,2,6,1,66,2,0,0,2,91.79,71.35637387574,2.74351999449,525.00744342401
A-243,5-methyl-5-phenylhexan-3-one,"InChI=1S/C13H11N3O3S2/c1-9-2-4-10(5-3-9)21(18,19)11(6-14)7-16-8-12(17)15-13(16)20/h2-5,7H,8H2,1H3,(H,15,17,20)/b11-7+",GPLOHVHPULDLOP-YRNVUSSQSA-N,Cc1ccc(cc1)[S](=O)(=O)/C(=C/N2CC(=O)NC2=S)C#N,-3.52929929510,0.00000000000,1,G1,321.38300,0.85040,79.50750,21,5,1,8,3,108,1,1,1,2,90.27,127.13853999888,2.41077171914,773.87466648689
A-247,2-ethyl-3-hydroxy-4H-pyran-4-one,"InChI=1S/C7H8O3/c1-2-6-7(9)5(8)3-4-10-6/h3-4,9H,2H2,1H3",YIKYNHJUKRTCJL-UHFFFAOYSA-N,CCC1=C(O)C(=O)C=CO1,-1.17595802040,0.00000000000,1,G1,140.13800,0.90780,36.02080,10,3,1,3,1,54,1,0,0,1,50.44,57.92186002454,3.27872706018,274.42486275438
A-249,methyl 2-phenylacetate,"InChI=1S/C9H10O2/c1-11-9(10)7-8-5-3-2-4-6-8/h2-6H,7H2,1H3",CRZQGDNQQAALAY-UHFFFAOYSA-N,COC(=O)Cc1ccccc1,-2.21140172340,0.00000000000,1,G1,150.17700,1.40210,42.16200,11,2,0,2,2,58,1,0,0,1,26.30,65.80129679224,2.57930229201,228.57786591623
A-251,lead; sulfuric acid; hydrate,"InChI=1S/H2O4S.H2O.Pb/c1-5(2,3)4;;/h(H2,1,2,3,4);1H2;",AWTSMFNITNKUQL-UHFFFAOYSA-N,O.[Pb].O[S](O)(=O)=O,-4.22629641590,0.00000000000,1,G1,323.29400,-1.85830,23.54520,7,2,2,7,0,44,0,0,0,0,106.10,60.76948755370,-0.00000008000,91.24856184822
A-252,1-chloro-2-methyl-3-nitrobenzene,"InChI=1S/C7H6ClNO2/c1-5-6(8)3-2-4-7(5)9(10)11/h2-4H,1H3",XCSNRORTQRKCHB-UHFFFAOYSA-N,Cc1c(Cl)cccc1[N+]([O-])=O,-3.27068642950,0.00000000000,1,G1,171.58300,2.55662,42.84340,11,2,0,4,1,58,1,0,0,1,43.14,68.75258718328,3.27358082154,298.49208977639
A-254,calcium dihydroxide,InChI=1S/Ca.2H2O/h;2*1H2/q+2;;/p-2,AXCZMVOFGPJBDE-UHFFFAOYSA-L,[OH-].[OH-].[Ca++],-1.91072992570,0.67275025533,7,G4,74.09200,-0.73440,9.62560,3,2,0,3,0,16,0,0,0,0,60.00,48.44575261196,0.00000000000,2.75488750216
A-255,silicon(+4) cation tetraphosphate,"InChI=1S/4H3O4P.3Si/c4*1-5(2,3)4;;;/h4*(H3,1,2,3,4);;;/q;;;;3*+4/p-12",XLUBVTJUEUUZMR-UHFFFAOYSA-B,[Si+4].[Si+4].[Si+4].[O-][P]([O-])([O-])=O.[O-][P]([O-])([O-])=O.[O-][P]([O-])([O-])=O.[O-][P]([O-])([O-])=O,-3.05598696340,0.29538289347,3,G5,464.13800,-12.44080,47.68800,23,16,0,23,0,128,0,0,0,0,345.00,141.44160072063,-0.00000002844,291.98263505218
A-256,1-chlorohexane,"InChI=1S/C6H13Cl/c1-2-3-4-5-6-7/h2-6H2,1H3",MLRVZFYXUZQSRU-UHFFFAOYSA-N,CCCCCCCl,-3.12238873320,0.22796597780,2,G3,120.62300,2.80550,34.86200,7,0,0,1,4,44,0,0,0,0,0.00,50.86722782669,2.44747288788,23.36099039895
A-257,"2,2,2-trifluoroethyl methacrylate","InChI=1S/C6H7F3O2/c1-4(2)5(10)11-3-6(7,8)9/h1,3H2,2H3",QTKPMCIBUROOGY-UHFFFAOYSA-N,CC(=C)C(=O)OCC(F)(F)F,-2.26847568390,0.00000000000,1,G1,168.11400,1.66800,31.82800,11,2,0,5,2,64,0,0,0,0,26.30,61.64603210596,3.72638741963,171.15643408969
A-259,bismuth hydroxide nitrate oxide,InChI=1S/Bi.3NO3/c;3*2-1(3)4/q+3;3*-1,PPNKDDZCLDMRHS-UHFFFAOYSA-N,[O-][N+](=O)O[Bi](O[N+]([O-])=O)O[N+]([O-])=O,-2.64200813700,0.00000000000,1,G1,394.99200,-1.40380,29.99220,13,9,0,13,6,74,0,0,0,0,157.11,77.82631384922,4.09599637061,184.86060383800
A-262,octan-2-one,"InChI=1S/C8H16O/c1-3-4-5-6-7-8(2)9/h3-7H2,1-2H3",ZPVFWPFBNIEHGJ-UHFFFAOYSA-N,CCCCCCC(C)=O,-2.15369632730,0.05184816365,2,G3,128.21500,2.54580,39.44000,9,1,0,1,5,54,0,0,0,0,17.07,57.45536792865,2.82886813491,76.63682062300