ID,Name,InChI,InChIKey,SMILES,Solubility,SD,Ocurrences,Group,MolWt,MolLogP,MolMR,HeavyAtomCount,NumHAcceptors,NumHDonors,NumHeteroatoms,NumRotatableBonds,NumValenceElectrons,NumAromaticRings,NumSaturatedRings,NumAliphaticRings,RingCount,TPSA,LabuteASA,BalabanJ,BertzCT
A-4588,3-amino-4-chlorobenzamide,"InChI=1S/C7H7ClN2O/c8-5-2-1-4(7(10)11)3-6(5)9/h1-3H,9H2,(H2,10,11)",QHMDKGRWJVOUFU-UHFFFAOYSA-N,NC(=O)c1ccc(Cl)c(N)c1,-1.97670397600,0.00000000000,1,G1,170.59900,1.02110,44.38230,11,2,2,4,1,58,1,0,0,1,69.11,68.94091495484,3.15154966831,298.49208977639
A-4589,"N-(4-amino-3-methoxy-9,10-dioxo-9,10-dihydroanthracen-1-yl)benzenesulfonamide","InChI=1S/C21H16N2O5S/c1-28-16-11-15(23-29(26,27)12-7-3-2-4-8-12)17-18(19(16)22)21(25)14-10-6-5-9-13(14)20(17)24/h2-11,23H,22H2,1H3",ZUWHJJGOYZUNDW-UHFFFAOYSA-N,COc1cc(N[S](=O)(=O)c2ccccc2)c3C(=O)c4ccccc4C(=O)c3c1N,-2.35585044590,0.00000000000,1,G1,408.43500,2.85360,107.96390,29,6,2,8,4,146,3,0,1,4,115.56,166.72170492392,1.95184652058,1267.72899755453
A-4591,"3-(oxiran-2-ylmethoxy)-N,N-bis(oxiran-2-ylmethyl)aniline","InChI=1S/C15H19NO4/c1-2-11(4-12(3-1)17-9-15-10-20-15)16(5-13-7-18-13)6-14-8-19-14/h1-4,13-15H,5-10H2",VAGOJLCWTUPBKD-UHFFFAOYSA-N,C1OC1COc2cccc(c2)N(CC3CO3)CC4CO4,-2.19256118920,0.00000000000,1,G1,277.32000,1.06820,73.37000,20,5,0,5,8,108,1,3,3,4,50.06,117.91240327671,1.42756543410,454.69624709853
A-4592,benzene,InChI=1S/C6H6/c1-2-4-6-5-3-1/h1-6H,UHOVQNZJYSORNB-UHFFFAOYSA-N,c1ccccc1,-1.64230887510,0.01186892350,2,G3,78.11400,1.68660,26.44200,6,0,0,0,0,30,1,0,0,1,0.00,37.43140311950,3.00000000000,71.96100505780
A-4593,"2,2,6,6-tetramethyl-N-{6-[(2,2,6,6-tetramethylpiperidin-4-yl)amino]hexyl}piperidin-4-amine","InChI=1S/C24H50N4/c1-21(2)15-19(16-22(3,4)27-21)25-13-11-9-10-12-14-26-20-17-23(5,6)28-24(7,8)18-20/h19-20,25-28H,9-18H2,1-8H3",UKJARPDLRWBRAX-UHFFFAOYSA-N,CC1(C)CC(CC(C)(C)N1)NCCCCCCNC2CC(C)(C)NC(C)(C)C2,-2.35074565600,0.00000000000,1,G1,394.69200,4.34440,123.10480,28,4,4,4,9,166,0,2,2,2,48.12,175.32070608633,1.53150331972,404.99682024039
A-4597,"2,4,7,9-tetramethyldec-5-yne-4,7-diol","InChI=1S/C14H26O2/c1-11(2)9-13(5,15)7-8-14(6,16)10-12(3)4/h11-12,15-16H,9-10H2,1-6H3",LXOFYPKXCSULTL-UHFFFAOYSA-N,CC(C)CC(C)(O)C#CC(C)(O)CC(C)C,-2.12435076390,0.00000000000,1,G1,226.36000,2.58400,67.93360,16,2,2,2,4,94,0,0,0,0,40.46,100.07119141124,4.57175287179,238.19526630210
A-4598,butyl prop-2-enoate,"InChI=1S/C7H12O2/c1-3-5-6-9-7(8)4-2/h4H,2-3,5-6H2,1H3",CQEYYJKEWSMYFG-UHFFFAOYSA-N,CCCCOC(=O)C=C,-1.87734085130,0.07826490996,4,G5,128.17100,1.51570,36.06400,9,2,0,2,4,52,0,0,0,0,26.30,55.51436801158,3.06550337939,97.08927323025
A-4600,4-(butoxymethyl)-2-methoxyphenol,"InChI=1S/C12H18O3/c1-3-4-7-15-9-10-5-6-11(13)12(8-10)14-2/h5-6,8,13H,3-4,7,9H2,1-2H3",VLDFMKOUUQYFGF-UHFFFAOYSA-N,CCCCOCc1ccc(O)c(OC)c1,-2.09489680630,0.01248316320,2,G3,210.27300,2.71750,59.22280,15,3,1,3,6,84,1,0,0,1,38.69,90.64238001709,2.47135777758,296.91874784909
A-4601,"2,5-dichloroanilinium chloride","InChI=1S/C6H5Cl2N.ClH/c7-4-1-2-5(8)6(9)3-4;/h1-3H,9H2;1H",ZALVJCYWUBQENP-UHFFFAOYSA-N,[H+].[Cl-].Nc1cc(Cl)ccc1Cl,-2.07500028010,0.00000000000,1,G1,198.48000,-0.30790,41.98640,10,1,1,4,0,56,1,0,0,1,26.02,77.01571789232,0.00000000000,229.06742233988
A-4602,disodium (2R)-2-(dodecanoyloxy)propane-1-sulfonate (2S)-2-(dodecanoyloxy)propane-1-sulfonate,"InChI=1S/2C15H30O5S.2Na/c2*1-3-4-5-6-7-8-9-10-11-12-15(16)20-14(2)13-21(17,18)19;;/h2*14H,3-13H2,1-2H3,(H,17,18,19);;/q;;2*+1/p-2/t2*14-;;/m10../s1",OIDZHGLUIRZPNM-XUZVGNKESA-L,[Na+].[Na+].CCCCCCCCCCCC(=O)O[C@@H](C)C[S]([O-])(=O)=O.CCCCCCCCCCCC(=O)O[C@H](C)C[S]([O-])(=O)=O,-2.61804683590,0.00000000000,1,G1,688.89800,0.77640,163.92440,44,10,0,14,26,252,0,0,0,0,167.00,312.96260942347,-0.00000034783,812.25819261061
A-4604,"2-(2-amino-1,3-thiazol-4-yl)acetic acid","InChI=1S/C5H6N2O2S/c6-5-7-3(2-10-5)1-4(8)9/h2H,1H2,(H2,6,7)(H,8,9)",DYCLHZPOADTVKK-UHFFFAOYSA-N,Nc1scc(CC(O)=O)n1,-1.98167311810,0.00000000000,1,G1,158.18200,0.35240,37.86620,10,4,2,5,2,54,1,0,0,1,76.21,61.31694514890,2.66881185016,245.55091916626
A-4605,"1'-(phenylmethyl)-[1,4'-bipiperidine]-4'-carbonitrile","InChI=1S/C18H25N3/c19-16-18(21-11-5-2-6-12-21)9-13-20(14-10-18)15-17-7-3-1-4-8-17/h1,3-4,7-8H,2,5-6,9-15H2/p+2",XXZATAXHOSMHKY-UHFFFAOYSA-P,N#CC1(CC[NH+](CC1)Cc2ccccc2)[NH+]3CCCCC3,-2.24599221060,0.00000000000,1,G1,285.43500,0.19648,82.96840,21,1,2,3,3,112,1,2,2,3,32.67,127.71129320707,1.59021210849,476.93494469714
A-4606,3-(diethylamino)phenol,"InChI=1S/C10H15NO/c1-3-11(4-2)9-6-5-7-10(12)8-9/h5-8,12H,3-4H2,1-2H3",WAVOOWVINKGEHS-UHFFFAOYSA-N,CCN(CC)c1cccc(O)c1,-2.01127879710,0.01536730850,2,G3,165.23600,2.23840,51.66780,12,2,1,2,3,66,1,0,0,1,23.47,73.44523899948,2.85359960030,243.34882468182
A-4607,"2,3-bis(nitrooxy)propyl nitrate","InChI=1S/C3H5N3O9/c7-4(8)13-1-3(15-6(11)12)2-14-5(9)10/h3H,1-2H2",SNIOPGDIGTZGOP-UHFFFAOYSA-N,[O-][N+](=O)OCC(CO[N+]([O-])=O)O[N+]([O-])=O,-2.15206846540,0.04214981829,4,G5,227.08500,-1.02010,37.76020,15,9,0,12,8,86,0,0,0,0,157.11,80.63081361108,3.99220554683,234.98712426016
A-4610,methyl 2-[(1E)-cyclopentylidene]acetate,"InChI=1S/C8H12O2/c1-10-8(9)6-7-4-2-3-5-7/h6H,2-5H2,1H3",ZDBCSZOFHPULAS-UHFFFAOYSA-N,COC(=O)C=C1CCCC1,-1.94257226920,0.01546685710,2,G3,140.18200,1.65980,38.56700,10,2,0,2,1,56,0,1,1,1,26.30,60.87347897244,2.44518476100,150.64052645973
A-4613,diphenyl methylphosphonate,"InChI=1S/C13H13O3P/c1-17(14,15-12-8-4-2-5-9-12)16-13-10-6-3-7-11-13/h2-11H,1H3",HPUPGAFDTWIMBR-UHFFFAOYSA-N,C[P](=O)(Oc1ccccc1)Oc2ccccc2,-2.20170867360,0.00000000000,1,G1,248.21800,3.96730,67.67050,17,3,0,4,4,88,2,0,0,2,35.53,100.54347031532,2.07498032271,465.20248855462
A-4616,fluorobenzene,InChI=1S/C6H5F/c7-6-4-2-1-3-5-6/h1-5H,PYLWMHQQBFSUBP-UHFFFAOYSA-N,Fc1ccccc1,-1.79240976590,0.00000000000,1,G1,96.10400,1.82570,26.40000,7,0,0,1,0,36,1,0,0,1,0.00,41.59693852242,3.02146530972,134.10736969541
A-4617,sodium heptadecyl sulfate,"InChI=1S/C17H36O4S.Na/c1-2-3-4-5-6-7-8-9-10-11-12-13-14-15-16-17-21-22(18,19)20;/h2-17H2,1H3,(H,18,19,20);/q;+1/p-1",HHURSJAUVYNJBT-UHFFFAOYSA-M,[Na+].CCCCCCCCCCCCCCCCCO[S]([O-])(=O)=O,-2.36699266690,0.00000000000,1,G1,358.52000,2.33860,90.57820,23,4,0,6,17,134,0,0,0,0,66.43,165.94290959649,0.00000000000,320.55505668806
A-4620,"2,2-difluoroethanamine","InChI=1S/C2H5F2N/c3-2(4)1-5/h2H,1,5H2",OVRWUZYZECPJOB-UHFFFAOYSA-N,NCC(F)F,0.52253037710,0.00634051590,2,G3,81.06500,0.21020,15.05840,5,1,1,3,1,32,0,0,0,0,26.02,28.77515464509,2.53953886136,21.60964047444
A-4623,"[(2R,3R,4S,5R,6R)-3,4,5,6-tetrakis(acetyloxy)oxan-2-yl]methyl acetate","InChI=1S/C16H22O11/c1-7(17)22-6-12-13(23-8(2)18)14(24-9(3)19)15(25-10(4)20)16(27-12)26-11(5)21/h12-16H,6H2,1-5H3",LPTITAGPBXDDGR-UHFFFAOYSA-N,CC(=O)OCC1OC(OC(C)=O)C(OC(C)=O)C(OC(C)=O)C1OC(C)=O,-2.41535291130,0.11732354435,2,G3,390.34100,-0.36740,83.72200,27,11,0,11,6,152,0,1,1,1,140.73,154.69643346751,3.28548232167,599.17394544008
A-4624,"2,2-dimethyl-3-phenylpropan-1-ol","InChI=1S/C11H16O/c1-11(2,9-12)8-10-6-4-3-5-7-10/h3-7,12H,8-9H2,1-2H3",VNGAHMPMLRTSLF-UHFFFAOYSA-N,CC(C)(CO)Cc1ccccc1,-2.04231382160,0.00000000000,1,G1,164.24800,2.24760,51.01280,12,1,1,1,3,66,1,0,0,1,20.23,74.05034744368,2.64124625557,226.01924532785
A-4625,2-phenyloxirane,"InChI=1S/C8H8O/c1-2-4-7(5-3-1)8-6-9-8/h1-5,8H,6H2",AWMVMTVKBNGEAK-UHFFFAOYSA-N,C1OC1c2ccccc2,-1.90654112130,0.15196749315,2,G3,120.15100,1.75790,35.13500,9,1,0,1,1,46,1,1,1,2,12.53,54.26900142427,2.28607130787,188.98242576044
A-4627,"tert-butyl 2,2-dimethylpropaneperoxoate","InChI=1S/C9H18O3/c1-8(2,3)7(10)11-12-9(4,5)6/h1-6H3",OPQYOFWUFGEMRZ-UHFFFAOYSA-N,CC(C)(C)OOC(=O)C(C)(C)C,-2.06796159400,0.00000000000,1,G1,174.24000,2.30580,46.38500,12,3,0,3,1,72,0,0,0,0,35.53,73.97669581780,3.89544056284,159.59291128035
A-4628,tetraethyl silicate,"InChI=1S/C8H20O4Si/c1-5-9-13(10-6-2,11-7-3)12-8-4/h5-8H2,1-4H3",BOTDANWDWHJENH-UHFFFAOYSA-N,CCO[Si](OCC)(OCC)OCC,-2.14556554540,0.00000000000,1,G1,208.33000,1.56800,52.25800,13,4,0,5,8,80,0,0,0,0,36.92,81.62232810764,4.18561164510,91.20187914912
A-4629,3-methyl-2-[(2E)-pent-2-en-1-yl]cyclopent-2-en-1-one,"InChI=1S/C11H16O/c1-3-4-5-6-10-9(2)7-8-11(10)12/h4-5H,3,6-8H2,1-2H3/b5-4-",XMLSXPIVAXONDL-PLNGDYQASA-N,CC\C=C/CC1=C(C)CCC1=O,-2.04523837460,0.00000000000,1,G1,164.24800,3.02210,50.98900,12,1,0,1,3,66,0,0,1,1,17.07,74.16515705394,2.55421374707,233.38866754698
A-4630,2-chlorobenzaldehyde,InChI=1S/C7H5ClO/c8-7-4-2-1-3-6(7)5-9/h1-5H,FPYUJUBAXZAQNL-UHFFFAOYSA-N,Clc1ccccc1C=O,-1.98057222050,0.04397758515,2,G3,140.56900,2.15250,36.83950,9,1,0,2,1,46,1,0,0,1,17.07,58.26113356082,3.14797913004,219.91106510210
A-4631,2-(butan-2-yl)phenol,"InChI=1S/C10H14O/c1-3-8(2)9-6-4-5-7-10(9)11/h4-8,11H,3H2,1-2H3",NGFPWHGISWUQOI-UHFFFAOYSA-N,CCC(C)c1ccccc1O,-2.01237779290,0.00000000000,1,G1,150.22100,2.90570,46.81280,11,1,1,1,2,60,1,0,0,1,20.23,67.68540532928,2.93385230576,230.06931585565
A-4634,"2,2'-(octylimino)diethanol","InChI=1S/C12H27NO2/c1-2-3-4-5-6-7-8-13(9-11-14)10-12-15/h14-15H,2-12H2,1H3",QZQNMMLYACBCMJ-UHFFFAOYSA-N,CCCCCCCCN(CCO)CCO,-2.19103760320,0.00000000000,1,G1,217.35300,1.63350,63.98760,15,3,2,3,11,92,0,0,0,0,43.70,94.10191546079,3.27827145905,114.18974674309
A-4639,5-nitroisophthalic acid,"InChI=1S/C8H5NO6/c10-7(11)4-1-5(8(12)13)3-6(2-4)9(14)15/h1-3H,(H,10,11)(H,12,13)",NBDAHKQJXVLAID-UHFFFAOYSA-N,OC(=O)c1cc(cc(c1)[N+]([O-])=O)C(O)=O,-2.17841985500,0.09920992750,2,G3,211.12900,0.99120,47.01500,15,4,2,7,3,78,1,0,0,1,117.74,82.72577477527,3.38738007545,373.43801139413
A-4641,"sodium 1-amino-9,10-dihydro-4-[[4-[[(4-methylphenyl)sulphonyl]oxy]phenyl]amino]-9,10-dioxoanthracene-2-sulphonate","InChI=1S/C27H20N2O8S2.Na/c1-15-6-12-18(13-7-15)39(35,36)37-17-10-8-16(9-11-17)29-21-14-22(38(32,33)34)25(28)24-23(21)26(30)19-4-2-3-5-20(19)27(24)31;/h2-14,29H,28H2,1H3,(H,32,33,34);/q;+1/p-1",YNYQQXPCRFXFIH-UHFFFAOYSA-M,[Na+].Cc1ccc(cc1)[S](=O)(=O)Oc2ccc(Nc3cc(c(N)c4C(=O)c5ccccc5C(=O)c34)[S]([O-])(=O)=O)cc2,-2.62219847520,0.00000000000,1,G1,586.57900,0.77202,140.84210,40,10,2,13,6,198,4,0,1,5,172.76,251.89446112816,0.00000369799,1888.45003087349
A-4642,ethyl [(4-methylphenyl)sulfonyl]carbamate,"InChI=1S/C10H13NO4S/c1-3-15-10(12)11-16(13,14)9-6-4-8(2)5-7-9/h4-7H,3H2,1-2H3,(H,11,12)",DFWQXANLGSXMKF-UHFFFAOYSA-N,CCOC(=O)N[S](=O)(=O)c1ccc(C)cc1,-2.24309874750,0.00000000000,1,G1,243.28400,1.42982,58.52250,16,4,1,6,3,88,1,0,0,1,72.47,94.47687698266,2.85944542951,464.09732610370
A-4644,calcium bis(2-methyloctanoate),"InChI=1S/2C9H18O2.Ca/c2*1-2-3-4-5-6-7-8-9(10)11;/h2*2-8H2,1H3,(H,10,11);/q;;+2/p-2",QSSGIYRIEKPVTG-UHFFFAOYSA-L,[Ca++].CCCCCCCCC([O-])=O.CCCCCCCCC([O-])=O,-2.41294957300,0.51823285065,2,G2,354.54400,2.59300,91.75400,23,4,0,5,14,132,0,0,0,0,80.26,171.97637782580,-0.00000033333,231.40614030669
A-4645,(diethoxymethoxy)ethane,"InChI=1S/C7H16O3/c1-4-8-7(9-5-2)10-6-3/h7H,4-6H2,1-3H3",GKASDNZWUGIAMG-UHFFFAOYSA-N,CCOC(OCC)OCC,-2.04052029600,0.00000000000,1,G1,148.20200,1.37950,38.66600,10,3,0,3,6,62,0,0,0,0,27.69,62.26953940273,3.29508211630,51.60689651178
A-4647,lithium(1+) ion fluoride,InChI=1S/FH.Li/h1H;/q;+1/p-1,PQXKHYXIUOZZFA-UHFFFAOYSA-M,[Li+].[F-],-1.29010158820,0.01385025397,3,G5,25.93900,-5.99200,0.00000,2,0,0,2,0,8,0,0,0,0,0.00,24.39470625024,0.00000000000,2.00000000000
A-4648,"N,N-dimethylnonanamide","InChI=1S/C11H23NO/c1-4-5-6-7-8-9-10-11(13)12(2)3/h4-10H2,1-3H3",DMLHJLWUADABON-UHFFFAOYSA-N,CCCCCCCCC(=O)N(C)C,-2.14404955870,0.00000000000,1,G1,185.31100,2.82520,56.68700,13,1,0,2,7,78,0,0,0,0,20.31,82.31002794204,3.11634385659,132.05196853082
A-4649,1-isocyanato-4-(4-isocyanato-3-methylphenyl)-2-methylbenzene,"InChI=1S/C16H12N2O2/c1-11-7-13(3-5-15(11)17-9-19)14-4-6-16(18-10-20)12(2)8-14/h3-8H,1-2H3",ICLCCFKUSALICQ-UHFFFAOYSA-N,Cc1cc(ccc1N=C=O)c2ccc(N=C=O)c(C)c2,-2.30812751900,0.00000000000,1,G1,264.28400,3.90504,76.91500,20,4,0,4,3,98,2,0,0,2,58.86,116.06195495496,2.46419791013,687.56734379398
A-4652,4-phenylbut-3-en-2-one,"InChI=1S/C10H10O/c1-9(11)7-8-10-5-3-2-4-6-10/h2-8H,1H3/b8-7+",BWHOZHOGCMHOBV-BQYQJAHWSA-N,CC(=O)\C=C\c1ccccc1,-2.05097134300,0.00000000000,1,G1,146.18900,2.28880,46.15700,11,1,0,1,2,56,1,0,0,1,17.07,66.36309064494,2.72177355407,259.46108312470
A-4654,"5-(4-hydroxyphenyl)imidazolidine-2,4-dione","InChI=1S/C9H8N2O3/c12-6-3-1-5(2-4-6)7-8(13)11-9(14)10-7/h1-4,7,12H,(H2,10,11,13,14)",UMTNMIARZPDSDI-UHFFFAOYSA-N,Oc1ccc(cc1)C2NC(=O)NC2=O,-2.17310491950,0.00000000000,1,G1,192.17400,0.27270,47.52220,14,3,3,5,1,72,1,1,1,2,78.43,79.73740062866,2.27228431915,385.54846965199
A-4655,sodium 2-(dodecanoyloxy)ethanesulfonate,"InChI=1S/C14H28O5S.Na/c1-2-3-4-5-6-7-8-9-10-11-14(15)19-12-13-20(16,17)18;/h2-13H2,1H3,(H,16,17,18);/q;+1/p-1",BRMSVEGRHOZCAM-UHFFFAOYSA-M,[Na+].CCCCCCCCCCCC(=O)OCC[S]([O-])(=O)=O,-2.40847924530,0.00000000000,1,G1,330.42200,-0.00030,77.36720,21,5,0,7,13,120,0,0,0,0,83.50,150.80060147729,0.00000000000,343.27352970013
A-4658,2-[(4-amino-2-nitrophenyl)amino]ethan-1-ol,"InChI=1S/C8H11N3O3/c9-6-1-2-7(10-3-4-12)8(5-6)11(13)14/h1-2,5,10,12H,3-4,9H2",GZGZVOLBULPDFD-UHFFFAOYSA-N,Nc1ccc(NCCO)c(c1)[N+]([O-])=O,-2.19108997560,0.00000000000,1,G1,197.19400,0.58120,53.08430,14,5,3,6,4,76,1,0,0,1,101.42,80.49824970361,2.96038258803,340.60343105283
A-4659,4-methyl-4-phenylpentan-2-ol,"InChI=1S/C12H18O/c1-10(13)9-12(2,3)11-7-5-4-6-8-11/h4-8,10,13H,9H2,1-3H3",NCYQVRNLBAYSLE-UHFFFAOYSA-N,CC(O)CC(C)(C)c1ccccc1,-2.14728672420,0.00000000000,1,G1,178.27500,2.73510,55.76580,13,1,1,1,3,72,1,0,0,1,20.23,80.41528955807,2.81073393573,249.08680360822
A-4661,naphthalen-1-ol,"InChI=1S/C10H8O/c11-10-7-3-5-8-4-1-2-6-9(8)10/h1-7,11H",KJCVRFUGPWSIIH-UHFFFAOYSA-N,Oc1cccc2ccccc12,-2.06197392250,0.08627163704,5,G5,144.17300,2.54540,45.61280,11,1,1,1,0,54,2,0,0,2,20.23,64.90730140343,2.91316116360,374.03449039868
A-4662,"2,3-dichloroaniline","InChI=1S/C6H5Cl2N/c7-4-2-1-3-5(9)6(4)8/h1-3H,9H2",BRPSAOUFIJSKOT-UHFFFAOYSA-N,Nc1cccc(Cl)c1Cl,-2.13038470130,0.00000000000,1,G1,162.01900,2.57560,40.87440,9,1,1,3,0,48,1,0,0,1,26.02,63.37782627027,3.24783473374,202.04788705001
A-4663,5-chloro-2-methylaniline,"InChI=1S/C7H8ClN/c1-5-2-3-6(8)4-7(5)9/h2-4H,9H2,1H3",WRZOMWDJOLIVQP-UHFFFAOYSA-N,Cc1ccc(Cl)cc1N,-2.07188507430,0.00000000000,1,G1,141.60100,2.23062,40.60140,9,1,1,2,0,48,1,0,0,1,26.02,59.43950215779,3.17167803044,220.15617759993
A-4664,N-acetyl-N-[2-(N-acetylacetamido)ethyl]acetamide,"InChI=1S/C10H16N2O4/c1-7(13)11(8(2)14)5-6-12(9(3)15)10(4)16/h5-6H2,1-4H3",BGRWYDHXPHLNKA-UHFFFAOYSA-N,CC(=O)N(CCN(C(C)=O)C(C)=O)C(C)=O,-2.27922573470,1.46040937695,2,G2,228.24800,-0.22360,56.13600,16,4,0,6,3,90,0,0,0,0,74.76,94.18948579798,4.49822686225,264.78071905113
A-4665,"[9-methyl-6-(propan-2-yl)-1,4-dioxaspiro[4.5]decan-2-yl]methanol","InChI=1S/C13H24O3/c1-9(2)12-5-4-10(3)6-13(12)15-8-11(7-14)16-13/h9-12,14H,4-8H2,1-3H3",ZBJCYZPANVLBRK-UHFFFAOYSA-N,CC(C)C1CCC(C)CC12OCC(CO)O2,-2.27938553470,0.00000000000,1,G1,228.33200,2.18260,61.98480,16,3,1,3,2,94,0,2,2,2,38.69,98.12821830474,2.13411791077,241.33220565074
A-4666,"disodium 5,5'-[propane-2,2-diylbis(4,1-phenyleneoxysulfonyl-2,1-phenylenediazene-2,1-diyl)]bis(6-amino-4-hydroxynaphthalene-2-sulfonate)","InChI=1S/C47H38N6O14S4.2Na/c1-47(2,29-11-15-33(16-12-29)66-70(62,63)35-7-3-5-31(23-35)50-52-45-39(48)19-9-27-21-37(68(56,57)58)25-41(54)43(27)45)30-13-17-34(18-14-30)67-71(64,65)36-8-4-6-32(24-36)51-53-46-40(49)20-10-28-22-38(69(59,60)61)26-42(55)44(28)46;;/h3-26,48-53H,1-2H3,(H,56,57,58)(H,59,60,61);;/q;2*+1",DCWBGUSTCFJTDR-UHFFFAOYSA-N,[Na+].[Na+].CC(C)(c1ccc(O[S](=O)(=O)c2cccc(NNC3=C4C(=O)C=C(C=C4C=CC3=N)[S](O)(=O)=O)c2)cc1)c5ccc(O[S](=O)(=O)c6cccc(NNC7=C8C(=O)C=C(C=C8C=CC7=N)[S](O)(=O)=O)c6)cc5,-2.95628731670,0.00000000000,1,G1,1085.09700,-0.36216,260.26900,73,18,8,26,16,364,4,0,4,8,325.44,463.26963871095,0.00000434570,3522.49247265740
A-4667,ethyl 2-phenylacetate,"InChI=1S/C10H12O2/c1-2-12-10(11)8-9-6-4-3-5-7-9/h3-7H,2,8H2,1H3",DULCUDSUACXJJC-UHFFFAOYSA-N,CCOC(=O)Cc1ccccc1,-2.13620248630,0.00000000000,1,G1,164.20400,1.79220,46.77900,12,2,0,2,3,64,1,0,0,1,26.30,72.16623890663,2.47166596069,241.27530899395
A-4668,nitrogen oxide,InChI=1S/N2O/c1-2-3,GQPLMRYTRLFLPF-UHFFFAOYSA-N,[N-]=[N+]=O,-1.56439972580,0.00000000000,1,G1,44.01300,-0.15840,8.86000,3,1,0,3,0,16,0,0,0,0,53.47,16.75598507195,3.26598632371,23.77443751082
A-4669,"sodium 1-amino-4-({3-[(2-hydroxyethyl)sulfamoyl]-4,5-dimethylphenyl}amino)-9,10-dioxo-9,10-dihydroanthracene-2-sulfonate","InChI=1S/C24H23N3O8S2.Na/c1-12-9-14(10-18(13(12)2)36(31,32)26-7-8-28)27-17-11-19(37(33,34)35)22(25)21-20(17)23(29)15-5-3-4-6-16(15)24(21)30;/h3-6,9-11,26-28H,7-8,25H2,1-2H3,(H,33,34,35);/q;+1/p-1",MHHGZCMFNNAVCQ-UHFFFAOYSA-M,[Na+].Cc1cc(Nc2cc(c(N)c3C(=O)c4ccccc4C(=O)c23)[S]([O-])(=O)=O)cc(c1C)[S](=O)(=O)NCCO,-2.67484354210,0.00000000000,1,G1,567.57700,-1.41666,133.59760,38,10,4,14,7,194,3,0,1,4,195.79,241.08911760616,0.00000399999,1703.97827938319
A-4671,2-butyl-4-chloro-1H-imidazole-5-carbaldehyde,"InChI=1S/C8H11ClN2O/c1-2-3-4-7-10-6(5-12)8(9)11-7/h5H,2-4H2,1H3,(H,10,11)",JLVIHQCWASNXCK-UHFFFAOYSA-N,CCCCc1[nH]c(Cl)c(C=O)n1,-2.19912737230,0.00000000000,1,G1,186.64200,2.21820,47.59720,12,2,1,4,4,66,1,0,0,1,45.75,76.14971042037,2.68031635332,270.02161855304
A-4676,(3Z)-hex-3-en-1-yl acetate,"InChI=1S/C8H14O2/c1-3-4-5-6-7-10-8(2)9/h4-5H,3,6-7H2,1-2H3/b5-4-",NPFVOOAXDOBMCE-PLNGDYQASA-N,CC\C=C/CCOC(C)=O,-2.11150080300,0.00775608310,2,G3,142.19800,1.90580,40.68100,10,2,0,2,4,58,0,0,0,0,26.30,61.87931012597,3.04763000412,116.42599881713
A-4678,"1-butyl-6-hydroxy-4-methyl-2-oxo-1,2-dihydropyridine-3-carbonitrile","InChI=1S/C11H14N2O2/c1-3-4-5-13-10(14)6-8(2)9(7-12)11(13)15/h6,15H,3-5H2,1-2H3",JSCJSXHNBIXPBU-UHFFFAOYSA-N,CCCCN1C(=O)C=C(C)C(=C1O)C#N,-2.27299074360,0.00000000000,1,G1,206.24500,1.53410,56.72680,15,4,1,4,3,80,1,0,0,1,66.02,88.39901080713,3.27927804391,454.88133025104
A-4679,2-methoxy-4-propylphenol,"InChI=1S/C10H14O2/c1-3-4-8-5-6-9(11)10(7-8)12-2/h5-7,11H,3-4H2,1-2H3",PXIKRTCSSLJURC-UHFFFAOYSA-N,CCCc1ccc(O)c(OC)c1,-2.17929059280,0.00000000000,1,G1,166.22000,2.35330,48.65380,12,2,1,2,3,66,1,0,0,1,29.46,72.79895055879,2.88865101049,256.01553398963
A-4680,"3,4-dichlorobut-1-ene","InChI=1S/C4H6Cl2/c1-2-4(6)3-5/h2,4H,1,3H2",XVEASTGLHPVZNA-UHFFFAOYSA-N,ClCC(Cl)C=C,-2.05551037910,0.24466186029,3,G5,124.99800,2.01860,30.55800,6,0,0,2,2,36,0,0,0,0,0.00,47.75100679260,2.96490049476,42.81274391313
A-4682,trilithium(1+) ion hexafluoroalumanetriuide,InChI=1S/Al.6FH.3Li/h;6*1H;;;/q+3;;;;;;;3*+1/p-6,VRSRNLHMYUACMN-UHFFFAOYSA-H,[Li+].[Li+].[Li+].[F-].[F-].[F-].[F-].[F-].[F-].[Al+3],-2.16756704270,0.00000000000,1,G1,161.79300,-27.34480,5.75400,10,0,0,10,0,48,0,0,0,0,0.00,101.50666511609,0.00000000000,12.95461844238
A-4683,1-octylpyrrolidin-2-one,"InChI=1S/C12H23NO/c1-2-3-4-5-6-7-10-13-11-8-9-12(13)14/h2-11H2,1H3",WPPOGHDFAVQKLN-UHFFFAOYSA-N,CCCCCCCCN1CCCC1=O,-2.25774901080,0.05324204282,5,G5,197.32200,2.96930,59.19000,14,1,0,2,7,82,0,1,1,1,20.31,87.66913890291,1.90467669351,167.70466441101
A-4684,(E)-N-(5-methylheptan-3-ylidene)hydroxylamine,"InChI=1S/C8H17NO/c1-4-7(3)6-8(5-2)9-10/h7,10H,4-6H2,1-3H3/b9-8+",CBVWMGCJNPPAAR-CMDGGOBGSA-N,CCC(C)C\C(CC)=N\O,-2.13072812670,0.00000000000,1,G1,143.23000,2.66280,43.58450,10,2,1,2,4,60,0,0,0,0,32.59,62.93744056614,3.63742061215,109.82521876649
A-4685,"N,N-dimethyl-3,3-diphenyloxolan-2-iminium bromide","InChI=1S/C18H20NO.BrH/c1-19(2)17-18(13-14-20-17,15-9-5-3-6-10-15)16-11-7-4-8-12-16;/h3-12H,13-14H2,1-2H3;1H/q+1;/p-1",QJPXLCQSAFQCBD-UHFFFAOYSA-M,[Br-].C[N+](C)=C1OCCC1(c2ccccc2)c3ccccc3,-2.52657513380,0.00000000000,1,G1,346.26800,0.06760,81.34840,21,1,0,3,2,110,2,1,1,3,12.24,136.40386017282,0.00000161333,578.68129041448
A-4688,"2-bromo-3,3,3-trifluoroprop-1-ene","InChI=1S/C3H2BrF3/c1-2(4)3(5,6)7/h1H2",QKBKGNDTLQFSEU-UHFFFAOYSA-N,FC(F)(F)C(Br)=C,-2.23858512580,0.00000000000,1,G1,174.94700,2.45730,24.12200,7,0,0,4,0,42,0,0,0,0,0.00,47.14368603886,3.79111841709,82.67103446306
A-4689,3-(4-methoxyphenyl)-2-methylpropanal,"InChI=1S/C11H14O2/c1-9(8-12)7-10-3-5-11(13-2)6-4-10/h3-6,8-9H,7H2,1-2H3",VLFBSPUPYFTTNF-UHFFFAOYSA-N,COc1ccc(CC(C)C=O)cc1,-2.24666187000,0.00000000000,1,G1,178.23100,2.07270,51.92600,13,2,0,2,4,70,1,0,0,1,26.30,78.53118102103,2.63410618052,263.92369729723