ID,Name,InChI,InChIKey,SMILES,Solubility,SD,Ocurrences,Group,MolWt,MolLogP,MolMR,HeavyAtomCount,NumHAcceptors,NumHDonors,NumHeteroatoms,NumRotatableBonds,NumValenceElectrons,NumAromaticRings,NumSaturatedRings,NumAliphaticRings,RingCount,TPSA,LabuteASA,BalabanJ,BertzCT
A-557,"2,3-dihydroxypropyl laurate","InChI=1S/C15H30O4/c1-2-3-4-5-6-7-8-9-10-11-15(18)19-13-14(17)12-16/h14,16-17H,2-13H2,1H3",ARIWANIATODDMH-UHFFFAOYSA-N,CCCCCCCCCCCC(=O)OCC(O)CO,-4.66023443940,0.38907562515,2,G3,274.40100,2.80370,75.89560,19,4,2,4,13,114,0,0,0,0,66.76,116.71197546332,3.18395903670,206.32225504134
A-558,2-benzoyl-5-methoxyphenol,"InChI=1S/C14H12O3/c1-17-11-7-8-12(13(15)9-11)14(16)10-5-3-2-4-6-10/h2-9,15H,1H3",DXGLGDHPHMLXJC-UHFFFAOYSA-N,COc1ccc(c(O)c1)C(=O)c2ccccc2,-4.58025382760,0.15051499785,2,G3,228.24700,2.63180,64.53330,17,3,1,3,3,86,2,0,0,2,46.53,99.28768263610,2.38286901061,532.41851534738
A-560,Vertofix,"InChI=1S/C17H26O/c1-10-6-7-15-16(4,5)14-9-17(10,15)8-13(11(14)2)12(3)18/h10,14-15H,6-9H2,1-5H3",YBUIAJZFOGJGLJ-UHFFFAOYSA-N,CC1CCC2C(C)(C)C3CC12CC(=C3C)C(C)=O,-4.61347887760,0.00000000000,1,G1,246.39400,4.37420,74.20700,18,1,0,1,1,100,0,2,3,3,17.07,111.03275046545,2.14933459031,442.52644523812
A-563,ethyl benzoate,"InChI=1S/C9H10O2/c1-2-11-9(10)8-6-4-3-5-7-8/h3-7H,2H2,1H3",MTZQAGJQAFMTAQ-UHFFFAOYSA-N,CCOC(=O)c1ccccc1,-2.39990224040,0.06465483031,3,G5,150.17700,1.86330,42.39850,11,2,0,2,2,58,1,0,0,1,26.30,65.80129679224,2.69300795041,228.57786591623
A-564,3-phenylpropanoic acid,"InChI=1S/C9H10O2/c10-9(11)7-6-8-4-2-1-3-5-8/h1-5H,6-7H2,(H,10,11)",XMIIGOLPHOKFCH-UHFFFAOYSA-N,OC(=O)CCc1ccccc1,-1.40575141280,0.09787570640,2,G3,150.17700,1.70380,42.39880,11,1,1,2,3,58,1,0,0,1,37.30,65.48198531493,2.45301874353,228.57786591623
A-566,"(2E)-3,7-dimethylocta-2,6-dienal","InChI=1S/C10H16O/c1-9(2)5-4-6-10(3)7-8-11/h5,7-8H,4,6H2,1-3H3/b10-7+",WTEVQBCEXWBHNA-JXMROGBWSA-N,CC(C)=CCC\C(C)=C\C=O,-2.41166820550,0.21168318561,3,G5,152.23700,2.87800,48.48600,11,1,0,1,4,62,0,0,0,0,17.07,68.80604609307,3.62575966037,171.31179861284
A-568,2-hexylcyclopentanone,"InChI=1S/C11H20O/c1-2-3-4-5-7-10-8-6-9-11(10)12/h10H,2-9H2,1H3",JTHVYOIHZNYRCC-UHFFFAOYSA-N,CCCCCCC1CCCC1=O,-3.45151553760,0.00000000000,1,G1,168.28000,3.32600,51.10700,12,1,0,1,5,70,0,1,1,1,17.07,75.54436311831,2.02298249403,139.93953880616
A-569,"2,4,4,7-tetramethyloct-6-en-3-one","InChI=1S/C12H22O/c1-9(2)7-8-12(5,6)11(13)10(3)4/h7,10H,8H2,1-6H3",CTLDWNVYXLHMAS-UHFFFAOYSA-N,CC(C)C(=O)C(C)(C)CC=C(C)C,-3.48921586360,0.00000000000,1,G1,182.30700,3.59400,57.67400,13,1,0,1,4,76,0,0,0,0,17.07,82.22553335405,4.39731386731,205.16436636180
A-570,"Phenol, styrenated","InChI=1S/C10H10O/c1-3-8-5-6-10(11)9(4-2)7-8/h3-7,11H,1-2H2",GZGSEMRMKBBQGA-UHFFFAOYSA-N,Oc1ccc(C=C)cc1C=C,-3.39406268370,1.38542600580,2,G2,146.18900,2.67820,48.28880,11,1,1,1,2,56,1,0,0,1,20.23,66.30619926491,3.21783540202,286.92429328192
A-574,2-amino-5-chlorophenol,"InChI=1S/C6H6ClNO/c7-4-1-2-5(8)6(9)3-4/h1-3,9H,8H2",FZCQMIRJCGWWCL-UHFFFAOYSA-N,Nc1ccc(Cl)cc1O,-2.39065992810,0.00000000000,1,G1,143.57300,1.62780,37.52920,9,2,2,3,0,48,1,0,0,1,46.25,57.86879379559,3.17167803044,224.29788705001
A-575,4-ethoxybenzoic acid,"InChI=1S/C9H10O3/c1-2-12-8-5-3-7(4-6-8)9(10)11/h3-6H,2H2,1H3,(H,10,11)",SHSGDXCJYVZFTP-UHFFFAOYSA-N,CCOc1ccc(cc1)C(O)=O,-2.45489974620,0.00000000000,1,G1,166.17600,1.78350,44.57030,12,2,1,3,3,64,1,0,0,1,46.53,70.59553054443,2.78086228887,263.60706625991
A-576,lead(+2) cation dicarbonate dihydroxide,"InChI=1S/2CH2O3.2H2O.3Pb/c2*2-1(3)4;;;;;/h2*(H2,2,3,4);2*1H2;;;/q;;;;3*+2/p-6",RYZCLUQMCYZBJQ-UHFFFAOYSA-H,[OH-].[OH-].[Pb++].[Pb++].[Pb++].[O-]C([O-])=O.[O-]C([O-])=O,-5.54723191770,0.05598687970,2,G3,775.63000,-6.39000,31.92560,13,8,0,11,0,70,0,0,0,0,186.38,133.41916508214,-0.00000000800,75.38992885098
A-578,"2,6-dichloro-4-(trifluoromethyl)aniline","InChI=1S/C7H4Cl2F3N/c8-4-1-3(7(10,11)12)2-5(9)6(4)13/h1-2H,13H2",ITNMAZSPBLRJLU-UHFFFAOYSA-N,Nc1c(Cl)cc(cc1Cl)C(F)(F)F,-3.59164275200,0.00000000000,1,G1,230.01600,3.59440,45.87640,13,1,1,6,0,72,1,0,0,1,26.02,82.23937459345,3.29203054555,311.99491902112
A-579,Desipramine,"InChI=1S/C18H22N2/c1-19-13-6-14-20-17-9-4-2-7-15(17)11-12-16-8-3-5-10-18(16)20/h2-5,7-10,19H,6,11-14H2,1H3",HCYAFALTSJYZDH-UHFFFAOYSA-N,CNCCCN1c2ccccc2CCc3ccccc13,-3.65761704120,0.01380852060,2,G3,266.38800,3.53280,85.84170,20,2,1,2,4,104,2,0,1,3,15.27,120.98201471222,1.99617126614,529.63583492589
A-581,"1-(4-chlorophenoxy)-1-(1H-imidazol-1-yl)-3,3-dimethylbutan-2-one","InChI=1S/C15H17ClN2O2/c1-15(2,3)13(19)14(18-9-8-17-10-18)20-12-6-4-11(16)5-7-12/h4-10,14H,1-3H3",OWEGWHBOCFMBLP-UHFFFAOYSA-N,CC(C)(C)C(=O)C(Oc1ccc(Cl)cc1)n2ccnc2,-3.70309264550,0.51145367725,2,G2,292.76600,3.72930,77.80600,20,4,0,5,4,106,2,0,0,2,44.12,122.89526345693,2.28122355040,570.92102371848
A-584,"decane-1,2-diol","InChI=1S/C10H22O2/c1-2-3-4-5-6-7-8-10(12)9-11/h10-12H,2-9H2,1H3",YSRSBDQINUMTIF-UHFFFAOYSA-N,CCCCCCCCC(O)CO,-2.47857895520,0.00000000000,1,G1,174.28400,2.09020,51.08560,12,2,2,2,8,74,0,0,0,0,40.46,75.61219756179,2.90185242607,83.90776466980
A-586,2-(butan-2-yl)cyclohexan-1-one,"InChI=1S/C10H18O/c1-3-8(2)9-6-4-5-7-10(9)11/h8-9H,3-7H2,1-2H3",RQXTZKGDMNIWJF-UHFFFAOYSA-N,CCC(C)C1CCCCC1=O,-2.42705780600,0.00000000000,1,G1,154.25300,2.79180,46.42000,11,1,0,1,2,64,0,1,1,1,17.07,69.17942100391,2.47003570437,139.80820345865
A-587,4-formyl-2-methoxyphenyl 2-methylpropanoate,"InChI=1S/C12H14O4/c1-8(2)12(14)16-10-5-4-9(7-13)6-11(10)15-3/h4-8H,1-3H3",BGKAKRUFBSTALK-UHFFFAOYSA-N,COc1cc(C=O)ccc1OC(=O)C(C)C,-2.58866760640,0.00000000000,1,G1,222.24000,2.06910,58.85450,16,4,0,4,4,86,1,0,0,1,52.60,94.17119046498,2.95480273174,396.00527574752
A-588,toluene,"InChI=1S/C7H8/c1-7-5-3-2-4-6-7/h2-6H,1H3",YXFVVABEGXRONW-UHFFFAOYSA-N,Cc1ccccc1,-2.20629829930,0.02313469885,3,G5,92.14100,1.99502,31.17900,7,0,0,0,0,36,1,0,0,1,0.00,43.79634523389,3.02146530972,129.96566024534
A-594,strontium 4-[(4-chloro-5-methyl-2-sulphonatophenyl)azo]-3-hydroxy-2-naphthoate (1:1),"InChI=1S/C18H13ClN2O6S.Sr/c1-9-6-14(15(8-13(9)19)28(25,26)27)20-21-16-11-5-3-2-4-10(11)7-12(17(16)22)18(23)24;/h2-8,20H,1H3,(H,23,24)(H,25,26,27);/q;+2/p-2/b21-16+;",ZZUKBDPLHIIUFR-JEBHESKQSA-L,[Sr++].Cc1cc(N\N=C/2C(=O)C(=Cc3ccccc23)C([O-])=O)c(cc1Cl)[S]([O-])(=O)=O,-3.94410037140,1.79216561220,2,G2,506.43400,0.70392,104.49890,29,8,1,11,4,144,2,0,1,3,138.79,207.83521248993,0.00000300000,1190.83265652223
A-596,"17-hydroxyandrosta-1,4-dien-3-one","InChI=1S/C19H26O2/c1-18-9-7-13(20)11-12(18)3-4-14-15-5-6-17(21)19(15,2)10-8-16(14)18/h7,9,11,14-17,21H,3-6,8,10H2,1-2H3/t14-,15-,16-,17-,18-,19-/m0/s1",RSIHSRDYCUFFLA-DYKIIFRCSA-N,C[C@]12CC[C@H]3[C@@H](CCC4=CC(=O)C=C[C@]34C)[C@@H]1CC[C@@H]2O,-3.70035965070,0.00000000000,1,G1,286.41500,3.65520,82.62280,21,2,1,2,0,114,0,3,4,4,37.30,126.86143426072,1.70468246318,545.76960784622
A-597,"3-(4-ethylphenyl)-2,2-dimethylpropanenitrile","InChI=1S/C13H17N/c1-4-11-5-7-12(8-6-11)9-13(2,3)10-14/h5-8H,4,9H2,1-3H3",NWMCCMGWYCKNJR-UHFFFAOYSA-N,CCc1ccc(CC(C)(C)C#N)cc1,-3.35133926360,0.00000000000,1,G1,187.28600,3.34128,58.91800,14,1,0,1,3,74,1,0,0,1,23.79,86.37857760174,2.74863001621,327.24834999788
A-599,"1,6-dichlorohexane",InChI=1S/C6H12Cl2/c7-5-3-1-2-4-6-8/h1-6H2,OVISMSJCKCDOPU-UHFFFAOYSA-N,ClCCCCCCCl,-3.43464732990,0.00000000000,1,G1,155.06800,3.02440,39.90800,8,0,0,2,5,50,0,0,0,0,0.00,61.17049405358,2.53006045688,31.50977500433
A-600,Tricyclodecenyl propionate,"InChI=1S/C13H18O2/c1-2-12(14)15-11-6-5-10-8-3-4-9(7-8)13(10)11/h5-6,8-11,13H,2-4,7H2,1H3",BALAUIYKESNHDW-UHFFFAOYSA-N,CCC(=O)OC1C=CC2C3CCC(C3)C12,-3.55859279380,0.00000000000,1,G1,206.28500,2.54030,57.12200,15,2,0,2,2,82,0,2,3,3,26.30,90.68652723737,1.72450302824,307.65781384228
A-601,ethoxybenzene,"InChI=1S/C8H10O/c1-2-9-8-6-4-3-5-7-8/h3-7H,2H2,1H3",DLRJIFUOBPOJNS-UHFFFAOYSA-N,CCOc1ccccc1,-2.33184164280,0.57398886030,2,G2,122.16700,2.08530,37.61100,9,1,0,1,2,48,1,0,0,1,9.23,55.27483257780,2.61489994009,157.47842076562
A-602,"(2-methyl-1-oxo-1-prop-2-enoxypropan-2-yl) 2-chloro-5-[3-methyl-2,6-dioxo-4-(trifluoromethyl)pyrimidin-1-yl]benzoate","InChI=1S/C20H18ClF3N2O6/c1-5-8-31-17(29)19(2,3)32-16(28)12-9-11(6-7-13(12)21)26-15(27)10-14(20(22,23)24)25(4)18(26)30/h5-7,9-10H,1,8H2,2-4H3",JEDYYFXHPAIBGR-UHFFFAOYSA-N,CN1C(=O)N(C(=O)C=C1C(F)(F)F)c2ccc(Cl)c(c2)C(=O)OC(C)(C)C(=O)OCC=C,-4.67652808900,0.00000000000,1,G1,474.81900,2.87300,107.94250,32,8,0,12,6,172,2,0,0,2,96.60,183.98060566728,2.50844481226,1197.28708327660
A-604,iron(3+) ion tris(4-methylbenzene-1-sulfonate),"InChI=1S/3C7H8O3S.Fe/c3*1-6-2-4-7(5-3-6)11(8,9)10;/h3*2-5H,1H3,(H,8,9,10);/q;;;+3/p-3",FYMCOOOLDFPFPN-UHFFFAOYSA-K,[Fe+3].Cc1ccc(cc1)[S]([O-])(=O)=O.Cc2ccc(cc2)[S]([O-])(=O)=O.Cc3ccc(cc3)[S]([O-])(=O)=O,-0.00803311210,0.00000000000,1,G1,569.43600,2.69486,117.42660,34,9,0,13,3,185,3,0,0,3,171.60,210.13360848422,0.00000047348,1190.61094149867
A-606,prop-2-en-1-yl 2-phenoxyacetate,"InChI=1S/C11H12O3/c1-2-8-13-11(12)9-14-10-6-4-3-5-7-10/h2-7H,1,8-9H2",VUFZVGQUAVDKMC-UHFFFAOYSA-N,C=CCOC(=O)COc1ccccc1,-2.53637320860,0.00000000000,1,G1,192.21400,1.79460,53.09300,14,3,0,3,5,74,1,0,0,1,35.53,82.95512321835,2.26843979654,292.66077056341
A-607,ammonium iodide,InChI=1S/HI.H3N/h1H;1H3,UKFWSNCTAHXBQN-UHFFFAOYSA-N,[NH4+].[I-],1.08677602030,0.00000000000,1,G1,144.94300,-2.61980,5.98480,2,0,1,2,0,16,0,0,0,0,36.50,30.64802054048,0.00000000000,2.00000000000
A-610,hexanedioic acid - piperazine (1:1),"InChI=1S/C6H10O4.C4H10N2/c7-5(8)3-1-2-4-6(9)10;1-2-6-4-3-5-1/h1-4H2,(H,7,8)(H,9,10);5-6H,1-4H2",BVEGEKOBSPXUJS-UHFFFAOYSA-N,OC(=O)CCCCC(O)=O.C1CNCCN1,-0.62328668610,0.03873816410,2,G3,232.28000,-0.10480,59.47900,16,4,4,6,5,94,0,1,1,1,98.66,95.03496612909,0.00000031500,177.48593526684
A-614,"4-amino-2,5-dimethoxy-N-methylbenzenesulfonamide","InChI=1S/C9H14N2O4S/c1-11-16(12,13)9-5-7(14-2)6(10)4-8(9)15-3/h4-5,11H,10H2,1-3H3",CISVVDNATRQDNU-UHFFFAOYSA-N,CN[S](=O)(=O)c1cc(OC)c(N)cc1OC,-3.65108056250,0.00000000000,1,G1,246.28800,0.19410,60.20390,16,5,2,7,4,90,1,0,0,1,90.65,94.40384869474,3.48319180154,484.52750703526
A-616,phosphoric acid; urea,"InChI=1S/CH4N2O.H3O4P/c2-1(3)4;1-5(2,3)4/h(H4,2,3,4);(H3,1,2,3,4)",DZHMRSPXDUUJER-UHFFFAOYSA-N,NC(N)=O.O[P](O)(O)=O,0.53760200210,0.00000000000,1,G1,158.05000,-1.90480,28.03370,9,2,5,8,0,56,0,0,0,0,146.87,50.51869760649,0.00000000000,114.65502203205
A-617,urea,"InChI=1S/CH4N2O/c2-1(3)4/h(H4,2,3,4)",XSQUKJJJFZCRTK-UHFFFAOYSA-N,NC(N)=O,0.95784009940,0.02939404370,2,G3,60.05600,-0.97620,13.77080,4,1,2,3,0,24,0,0,0,0,69.11,23.58055452190,2.80303948767,29.01955000865
A-618,1H-benzimidazol-2-ol,"InChI=1S/C7H6N2O/c10-7-8-5-3-1-2-4-6(5)9-7/h1-4H,(H2,8,9,10)",SILNNFMWIMZVEQ-UHFFFAOYSA-N,O=C1Nc2ccccc2N1,-2.39275199710,0.00000000000,1,G1,134.13800,0.85620,38.91940,10,1,2,3,0,50,2,0,0,2,48.65,56.70339815324,3.00761954680,362.89835341124
A-619,carbon monoxide; iron,InChI=1S/5CO.Fe/c5*1-2;,FYOFOKCECDGJBF-UHFFFAOYSA-N,[Fe].[C-]#[O+].[C-]#[O+].[C-]#[O+].[C-]#[O+].[C-]#[O+],-3.29202335130,0.17827366175,2,G3,195.89500,-0.19005,19.64750,11,0,0,6,0,58,0,0,0,0,99.50,74.22020094963,-0.00000000694,73.43782579026
A-620,3-methyl-5-(prop-2-enoyloxy)pentyl prop-2-enoate,"InChI=1S/C12H18O4/c1-4-11(13)15-8-6-10(3)7-9-16-12(14)5-2/h4-5,10H,1-2,6-9H2,3H3",IQGIEMYBDGDBMR-UHFFFAOYSA-N,CC(CCOC(=O)C=C)CCOC(=O)C=C,-2.62143355050,0.00000000000,1,G1,226.27200,1.86110,60.71000,16,4,0,4,8,90,0,0,0,0,52.60,95.92454288093,3.47359123541,231.74437510817
A-622,3-chloroaniline,"InChI=1S/C6H6ClN/c7-5-2-1-3-6(8)4-5/h1-4H,8H2",PNPCRKVUWYDDST-UHFFFAOYSA-N,Nc1cccc(Cl)c1,-1.37336841290,0.02682372520,2,G3,127.57400,1.92220,35.86440,8,1,1,2,0,42,1,0,0,1,26.02,53.07456004339,3.07766043797,168.38833891467
A-624,decahydronaphthalen-2-yl acetate,"InChI=1S/C12H20O2/c1-9(13)14-12-7-6-10-4-2-3-5-11(10)8-12/h10-12H,2-8H2,1H3",XKCLIPLFEJSOAT-UHFFFAOYSA-N,CC(=O)OC1CCC2CCCCC2C1,-3.56050441520,0.00000000000,1,G1,196.29000,2.90840,54.85300,14,2,0,2,1,80,0,2,2,2,26.30,86.01701930868,1.85739499305,212.36726887878
A-625,"2-hexadecan-2-yl-4,6-dimethylphenol","InChI=1S/C24H42O/c1-5-6-7-8-9-10-11-12-13-14-15-16-17-21(3)23-19-20(2)18-22(4)24(23)25/h18-19,21,25H,5-17H2,1-4H3",TVWGHFVGFWIHFN-UHFFFAOYSA-N,CCCCCCCCCCCCCCC(C)c1cc(C)cc(C)c1O,-7.33570732270,0.48598563820,2,G3,346.59900,8.20374,111.69080,25,1,1,1,14,144,1,0,0,1,20.23,156.79459493083,2.04578438564,463.40857385764
A-626,cyclopentene,"InChI=1S/C5H8/c1-2-4-5-3-1/h1-2H,3-5H2",LPIQUOYDBNQMRZ-UHFFFAOYSA-N,C1CC=CC1,-2.10491448180,0.26211689970,2,G3,68.11900,1.72650,22.99100,5,0,0,0,0,28,0,0,1,1,0.00,32.50358529970,2.32385086902,38.00000000000
A-628,"2-[(6-oxobenzo[c][2,1]benzoxaphosphinin-6-yl)methyl]butanedioic acid","InChI=1S/C17H15O6P/c18-16(19)9-11(17(20)21)10-24(22)15-8-4-2-6-13(15)12-5-1-3-7-14(12)23-24/h1-8,11H,9-10H2,(H,18,19)(H,20,21)",XZAXQWXHBDKYJI-UHFFFAOYSA-N,OC(=O)CC(C[P]1(=O)Oc2ccccc2c3ccccc13)C(O)=O,-2.81350950560,0.00000000000,1,G1,346.27500,2.82490,87.99210,24,4,2,7,5,124,2,0,1,3,100.90,137.70870383622,2.06328066714,859.66420157019
A-638,methane; sulfuric acid,"InChI=1S/CH4.H2O4S/c;1-5(2,3)4/h1H4;(H2,1,2,3,4)",LRPCLTPZMUIPFK-UHFFFAOYSA-N,C.O[S](O)(=O)=O,-3.33309350450,0.86869123009,5,G4,114.12200,-0.01670,20.90840,6,2,2,5,0,40,0,0,0,0,74.60,36.37695581965,0.00000000000,90.71649287258
A-639,hexafluoroethane,"InChI=1S/C2F6/c3-1(4,5)2(6,7)8",WMIYKQLTONQJES-UHFFFAOYSA-N,FC(F)(F)C(F)(F)F,-2.42390721220,0.91249639390,2,G2,138.01000,2.11100,12.11000,8,0,0,6,0,50,0,0,0,0,0.00,40.09740555978,4.02039154318,61.50977500433
A-640,"(4E)-5,9-dimethyldeca-4,8-dienal","InChI=1S/C12H20O/c1-11(2)7-6-9-12(3)8-4-5-10-13/h7-8,10H,4-6,9H2,1-3H3/b12-8-",MMLYERLRGHVBEK-WQLSENKSSA-N,CC(C)=CCC\C(C)=C/CCC=O,-3.53830354460,0.00000000000,1,G1,180.29100,3.65820,57.72000,13,1,0,1,6,74,0,0,0,0,17.07,81.53593032187,3.60129945060,195.17001630580
A-645,phenyl methacrylate,"InChI=1S/C10H10O2/c1-8(2)10(11)12-9-6-4-3-5-7-9/h3-7H,1H2,2H3",QIWKUEJZZCOPFV-UHFFFAOYSA-N,CC(=C)C(=O)Oc1ccccc1,-2.49485136050,0.00000000000,1,G1,162.18800,2.16810,46.89100,12,2,0,2,2,62,1,0,0,1,26.30,71.47663587445,2.65039777327,287.96670602156
A-646,cobalt(2+) bis(4-oxopent-2-en-2-olate),"InChI=1S/2C5H8O2.Co/c2*1-4(6)3-5(2)7;/h2*3,6H,1-2H3;/q;;+2/p-2",UTYYEGLZLFAFDI-UHFFFAOYSA-L,[Co++].CC([O-])=CC(C)=O.CC([O-])=CC(C)=O,-1.69753009940,0.01698804040,2,G3,257.15100,-0.32350,48.87600,15,4,0,5,2,87,0,0,0,0,80.26,99.88190033250,-0.00000018000,230.59595362048
A-647,"2,6,6-trimethylcyclohexa-1,3-diene-1-carbaldehyde","InChI=1S/C10H14O/c1-8-5-4-6-10(2,3)9(8)7-11/h4-5,7H,6H2,1-3H3",SGAWOGXMMPSZPB-UHFFFAOYSA-N,CC1=C(C=O)C(C)(C)CC=C1,-2.46500775690,0.00000000000,1,G1,150.22100,2.48790,46.30200,11,1,0,1,1,60,0,0,1,1,17.07,67.80021493955,3.09522896564,231.25733219947
A-648,"2,6-di-tert-butyl-4-[(dimethylamino)methyl]phenol","InChI=1S/C17H29NO/c1-16(2,3)13-9-12(11-18(7)8)10-14(15(13)19)17(4,5)6/h9-10,19H,11H2,1-8H3",VMZVBRIIHDRYGK-UHFFFAOYSA-N,CN(C)Cc1cc(c(O)c(c1)C(C)(C)C)C(C)(C)C,-2.71138702770,1.21030084722,4,G4,263.42500,4.04880,82.89780,19,2,1,2,2,108,1,0,0,1,23.47,117.99983380026,3.47870843367,412.30547357610
A-649,4-cyclohexyl-4-methylpentan-2-one,"InChI=1S/C12H22O/c1-10(13)9-12(2,3)11-7-5-4-6-8-11/h11H,4-9H2,1-3H3",OAFJAALOFJVHMK-UHFFFAOYSA-N,CC(=O)CC(C)(C)C1CCCCC1,-3.54815364290,0.00000000000,1,G1,182.30700,3.57200,55.65400,13,1,0,1,3,76,0,1,1,1,17.07,81.90930523271,2.50135670285,175.56349808389
A-652,5-methyl-2-(propan-2-yl)cyclohexan-1-ol,"InChI=1S/C10H20O/c1-7(2)9-5-4-8(3)6-10(9)11/h7-11H,4-6H2,1-3H3",NOOLISFMXDJSKH-UHFFFAOYSA-N,CC(C)C1CCC(C)CC1O,-2.48800912070,0.08128306588,5,G5,156.26900,2.43950,47.34980,11,1,1,1,1,66,0,1,1,1,20.23,69.81213265607,2.43715926003,120.04118472439
A-653,Cobalt molybdate,InChI=1S/Co.Mo.4O/q+2;;;;2*-1,KYYSIVCCYWZZLR-UHFFFAOYSA-N,[Co++].[O-][Mo]([O-])(=O)=O,-2.63432054140,0.00000000000,1,G1,218.86900,-2.62060,1.37300,6,4,0,6,0,39,0,0,0,0,80.26,48.09100054232,0.00000000000,90.71649287258
A-655,"1-N-phenylbenzene-1,4-diamine","InChI=1S/C12H12N2/c13-10-6-8-12(9-7-10)14-11-4-2-1-3-5-11/h1-9,14H,13H2",ATGUVEKSASEFFO-UHFFFAOYSA-N,Nc1ccc(Nc2ccccc2)cc1,-2.56313047620,0.00000000000,1,G1,184.24200,3.01240,60.57910,14,2,2,2,2,70,2,0,0,2,38.05,83.37825020618,2.15511085123,392.42672290327
A-656,"N,2-dimethyl-N-phenylbutanamide","InChI=1S/C12H17NO/c1-4-10(2)12(14)13(3)11-8-6-5-7-9-11/h5-10H,4H2,1-3H3",LNODIGSABOGNBQ-UHFFFAOYSA-N,CCC(C)C(=O)N(C)c1ccccc1,-1.58057951260,0.00000000000,1,G1,191.27400,2.69550,59.30700,14,1,0,2,3,76,1,0,0,1,20.31,85.54241157612,2.75652939857,294.44985586193
A-657,dimethoxymethylvinylsilane,"InChI=1S/C5H12O2Si/c1-5-8(4,6-2)7-3/h5H,1H2,2-4H3",ZLNAFSPCNATQPQ-UHFFFAOYSA-N,CO[Si](C)(OC)C=C,0.57762358480,0.00000000000,1,G1,132.23500,1.07640,35.83300,8,2,0,3,3,48,0,0,0,0,18.46,51.36415121544,3.76308986932,78.49785513558
A-659,pyridine-3-carboxamide,"InChI=1S/C6H6N2O/c7-6(9)5-2-1-3-8-4-5/h1-4H,(H2,7,9)",DFPAKSUCGFBDDF-UHFFFAOYSA-N,NC(=O)c1cccnc1,0.61215831540,0.00000000000,1,G1,122.12700,0.18050,32.75490,9,2,1,3,1,46,1,0,0,1,55.98,52.51740601190,2.98145461404,207.55766205434
A-660,bis(4-hydroxy-N-methylanilinium) sulfate,"InChI=1S/2C7H9NO.H2O4S/c2*1-8-6-2-4-7(9)5-3-6;1-5(2,3)4/h2*2-5,8-9H,1H3;(H2,1,2,3,4)",ZVNPWFOVUDMGRP-UHFFFAOYSA-N,CNc1ccc(O)cc1.CNc2ccc(O)cc2.O[S](O)(=O)=O,-0.83807926700,0.10649841125,2,G3,344.38900,2.21500,89.48440,23,6,6,9,2,128,2,0,0,2,139.12,134.55010937132,0.00000033175,603.17177648556
A-661,"trisodium (4E)-3-oxo-4-[2-(4-sulfonatonaphthalen-1-yl)hydrazin-1-ylidene]-3,4-dihydronaphthalene-2,7-disulfonate","InChI=1S/C20H14N2O10S3.3Na/c23-20-18(35(30,31)32)10-11-9-12(33(24,25)26)5-6-13(11)19(20)22-21-16-7-8-17(34(27,28)29)15-4-2-1-3-14(15)16;;;/h1-10,21H,(H,24,25,26)(H,27,28,29)(H,30,31,32);;;/q;3*+1/p-3/b22-19+;;;",VOBHRQFELWTZFS-DXVNCNPQSA-K,[Na+].[Na+].[Na+].[O-][S](=O)(=O)c1ccc2c(c1)C=C(C(=O)/C2=N/Nc3ccc(c4ccccc34)[S]([O-])(=O)=O)[S]([O-])(=O)=O,-1.08241408730,0.03959062305,2,G3,604.48300,-8.05500,119.15730,38,12,1,18,5,182,3,0,1,4,213.06,283.63744581717,0.00000240667,1821.94843297023
A-662,"3,5-dimethylphenol","InChI=1S/C8H10O/c1-6-3-7(2)5-8(9)4-6/h3-5,9H,1-2H3",TUAMRELNJMMDMT-UHFFFAOYSA-N,Cc1cc(C)cc(O)c1,-1.38798390490,0.00527509115,2,G3,122.16700,2.00904,37.58080,9,1,1,1,0,48,1,0,0,1,20.23,54.95552110049,3.16567030992,165.32984016149
A-665,"2,2-bis[(prop-2-enoyloxy)methyl]butyl prop-2-enoate","InChI=1S/C15H20O6/c1-5-12(16)19-9-15(8-4,10-20-13(17)6-2)11-21-14(18)7-3/h5-7H,1-3,8-11H2,4H3",DAKWPKUUDNSNPN-UHFFFAOYSA-N,CCC(COC(=O)C=C)(COC(=O)C=C)COC(=O)C=C,-2.77278949500,0.00000000000,1,G1,296.31900,1.57040,76.19200,21,6,0,6,10,116,0,0,0,0,78.90,123.60483352148,4.87252937463,364.06624200276
A-666,"2,6-dimethylheptan-4-one","InChI=1S/C9H18O/c1-7(2)5-9(10)6-8(3)4/h7-8H,5-6H2,1-4H3",PTTPXKJBFFKCEK-UHFFFAOYSA-N,CC(C)CC(=O)CC(C)C,-2.45405784580,0.35721148151,3,G5,142.24200,2.64770,43.91700,10,1,0,1,4,60,0,0,0,0,17.07,63.82031004305,3.44438706033,91.29589375351
A-667,"4-allyl-1,2-dimethoxybenzene","InChI=1S/C11H14O2/c1-4-5-9-6-7-10(12-2)11(8-9)13-3/h4,6-8H,1,5H2,2-3H3",ZYEMGPIYFIJGTP-UHFFFAOYSA-N,COc1ccc(CC=C)cc1OC,-2.55201323950,0.00000000000,1,G1,178.23100,2.43230,53.44700,13,2,0,2,4,70,1,0,0,1,18.46,78.79360111831,2.97532675611,292.14179495660
A-668,7-amino-4-hydroxynaphthalene-2-sulfonic acid,"InChI=1S/C10H9NO4S/c11-7-1-2-9-6(3-7)4-8(5-10(9)12)16(13,14)15/h1-5,12H,11H2,(H,13,14,15)",KYARBIJYVGJZLB-UHFFFAOYSA-N,Nc1ccc2c(O)cc(cc2c1)[S](O)(=O)=O,-2.67988557260,0.04845500650,2,G3,239.25200,1.37430,59.83980,16,4,3,6,1,84,2,0,0,2,100.62,91.87582811048,2.85189864898,663.81851931239
A-669,aluminium(3+) ion 6-sulfonato-1-[(E)-2-(4-sulfonatophenyl)diazen-1-yl]naphthalen-2-olate,"InChI=1S/C16H12N2O7S2.Al/c19-15-8-1-10-9-13(27(23,24)25)6-7-14(10)16(15)18-17-11-2-4-12(5-3-11)26(20,21)22;/h1-9,19H,(H,20,21,22)(H,23,24,25);/q;+3/p-3",FFVVMXXUKCHQFS-UHFFFAOYSA-K,[Al+3].[O-]c1ccc2cc(ccc2c1N=Nc3ccc(cc3)[S]([O-])(=O)=O)[S]([O-])(=O)=O,-2.93688655290,0.00000000000,1,G1,432.37100,1.75620,95.69240,28,9,0,12,4,140,3,0,0,3,162.18,170.54195846605,0.00000280333,1272.34066047544