ID,Name,InChI,InChIKey,SMILES,Solubility,SD,Ocurrences,Group,MolWt,MolLogP,MolMR,HeavyAtomCount,NumHAcceptors,NumHDonors,NumHeteroatoms,NumRotatableBonds,NumValenceElectrons,NumAromaticRings,NumSaturatedRings,NumAliphaticRings,RingCount,TPSA,LabuteASA,BalabanJ,BertzCT
A-4690,"N-(2,4,4-trimethylpentan-2-yl)prop-2-enamide","InChI=1S/C11H21NO/c1-7-9(13)12-11(5,6)8-10(2,3)4/h7H,1,8H2,2-6H3,(H,12,13)",YRDNVESFWXDNSI-UHFFFAOYSA-N,CC(C)(C)CC(C)(C)NC(=O)C=C,-2.25882924450,0.00000000000,1,G1,183.29500,2.50340,56.49070,13,1,1,2,3,76,0,0,0,0,29.10,81.41045342326,4.23655156601,198.62604350512
A-4691,"1,1,1,2-tetrafluoroethane","InChI=1S/C2H2F4/c3-1-2(4,5)6/h1H2",LVGUZGTVOIAKKC-UHFFFAOYSA-N,FCC(F)(F)F,-2.00872788670,0.00000000000,1,G1,102.03000,1.51820,12.03000,6,0,0,4,0,38,0,0,0,0,0.00,31.76633475393,3.16848987267,35.30296890881
A-4695,2-amino-5-chloro-4-methylbenzene-1-sulfonic acid,"InChI=1S/C7H8ClNO3S/c1-4-2-6(9)7(3-5(4)8)13(10,11)12/h2-3H,9H2,1H3,(H,10,11,12)",VYZCFAPUHSSYCC-UHFFFAOYSA-N,Cc1cc(N)c(cc1Cl)[S](O)(=O)=O,-2.34569712520,0.00000000000,1,G1,221.66500,1.47732,50.41600,13,3,2,6,1,72,1,0,0,1,80.39,81.06813816783,3.50155273448,441.29603124726
A-4699,ethyl 3-methyl-3-phenyloxirane-2-carboxylate,"InChI=1S/C12H14O3/c1-3-14-11(13)10-12(2,15-10)9-7-5-4-6-8-9/h4-8,10H,3H2,1-2H3",LQKRYVGRPXFFAV-UHFFFAOYSA-N,CCOC(=O)C1OC1(C)c2ccccc2,-2.31437500580,0.00000000000,1,G1,206.24100,1.86370,55.30000,15,3,0,3,3,80,1,1,1,2,38.83,89.00383721140,2.10210501879,360.38979812053
A-4700,molybdenum trioxide,InChI=1S/Mo.3O,JKQOBWVOAYFWKG-UHFFFAOYSA-N,O=[Mo](=O)=O,-2.15817244670,0.00000000000,1,G1,143.93700,-0.35890,2.05950,4,3,0,4,0,24,0,0,0,0,51.21,28.09890849093,4.64758001545,72.67739285527
A-4701,"sodium 1-amino-9,10-dioxo-4-[(3-propanamidophenyl)amino]-9,10-dihydroanthracene-2-sulfonate","InChI=1S/C23H19N3O6S.Na/c1-2-18(27)26-13-7-5-6-12(10-13)25-16-11-17(33(30,31)32)21(24)20-19(16)22(28)14-8-3-4-9-15(14)23(20)29;/h3-11,25H,2,24H2,1H3,(H,26,27)(H,30,31,32);/q;+1/p-1",XYOLLVHQNKFTLW-UHFFFAOYSA-M,[Na+].CCC(=O)Nc1cccc(Nc2cc(c(N)c3C(=O)c4ccccc4C(=O)c23)[S]([O-])(=O)=O)c1,-2.68794700250,0.00000000000,1,G1,487.46900,0.04440,120.77000,34,8,3,11,5,168,3,0,1,4,158.49,217.33068794719,0.00000324000,1453.05468559438
A-4703,4-chloro-2-(trifluoromethyl)aniline,"InChI=1S/C7H5ClF3N/c8-4-1-2-6(12)5(3-4)7(9,10)11/h1-3H,12H2",CVINWVPRKDIGLL-UHFFFAOYSA-N,Nc1ccc(Cl)cc1C(F)(F)F,-2.29348137570,0.00000000000,1,G1,195.57100,2.94100,40.86640,12,1,1,5,0,66,1,0,0,1,26.02,71.93610836657,3.23142501309,295.19322947354
A-4704,bis(trimethylsilyl)amine,"InChI=1S/C6H19NSi2/c1-8(2,3)7-9(4,5)6/h7H,1-6H3",FFUAGWLWBBFQJT-UHFFFAOYSA-N,C[Si](C)(C)N[Si](C)(C)C,-2.21007237720,0.62251490640,3,G4,161.39700,2.24580,49.82770,9,1,1,3,2,56,0,0,0,0,12.03,61.03569987387,3.74641793125,76.21143267167
A-4707,2-tert-butylphenol,"InChI=1S/C10H14O/c1-10(2,3)8-6-4-5-7-9(8)11/h4-7,11H,1-3H3",WJQOZHYUIDYNHM-UHFFFAOYSA-N,CC(C)(C)c1ccccc1O,-2.18995891440,0.07082054280,2,G3,150.22100,2.68970,46.80680,11,1,1,1,0,60,1,0,0,1,20.23,67.68540532928,3.14110919053,245.29484428382
A-4709,"2,6-dimethyloct-7-en-2-ol","InChI=1S/C10H20O/c1-5-9(2)7-6-8-10(3,4)11/h5,9,11H,1,6-8H2,2-4H3",XSNQECSCDATQEL-UHFFFAOYSA-N,CC(CCCC(C)(C)O)C=C,-2.22120724070,0.00000000000,1,G1,156.26900,2.74970,49.50980,11,1,1,1,5,66,0,0,0,0,20.23,70.12836077741,3.34535572839,110.53140972007
A-4711,"3-(2H-1,3-benzodioxol-5-yl)-2-methylpropanal","InChI=1S/C11H12O3/c1-8(6-12)4-9-2-3-10-11(5-9)14-7-13-10/h2-3,5-6,8H,4,7H2,1H3",BOPPSUHPZARXTH-UHFFFAOYSA-N,CC(Cc1ccc2OCOc2c1)C=O,-2.31343814030,0.00000000000,1,G1,192.21400,1.79280,51.49700,14,3,0,3,3,74,1,0,1,2,35.53,82.63889509701,2.16058941509,346.38592250333