ID,Name,InChI,InChIKey,SMILES,Solubility,SD,Ocurrences,Group,MolWt,MolLogP,MolMR,HeavyAtomCount,NumHAcceptors,NumHDonors,NumHeteroatoms,NumRotatableBonds,NumValenceElectrons,NumAromaticRings,NumSaturatedRings,NumAliphaticRings,RingCount,TPSA,LabuteASA,BalabanJ,BertzCT
A-1900,tripotassium methylsilanetris(olate),"InChI=1S/CH5O3Si.K/c1-5(2,3)4;/h2-3H,1H3;/q-1;+1",MQGFFOISLVUDQU-UHFFFAOYSA-N,[K+].C[Si](O)(O)[O-],0.87866343330,0.00000000000,1,G1,132.23200,-5.09600,16.05560,6,3,2,5,0,32,0,0,0,0,63.52,79.79548981188,0.00000000000,26.26466250649
A-1901,"butan-2-one O,O',O''-(methylsilylidyne)trioxime","InChI=1S/C13H27N3O3Si/c1-8-11(4)14-17-20(7,18-15-12(5)9-2)19-16-13(6)10-3/h8-10H2,1-7H3/b14-11+,15-12+,16-13+",OGZPYBBKQGPQNU-DABLZPOSSA-N,CC/C(C)=N/O[Si@](C)(O\N=C(C)\CC)O\N=C(C)\CC,-0.47923401670,0.00000000000,1,G1,301.46300,3.96260,85.07300,20,6,0,7,9,116,0,0,0,0,64.77,122.75824787723,4.91905639899,325.99902063547
A-1902,peroxol,InChI=1S/H2O2/c1-2/h1-2H,MHAJPDPJQMAIIY-UHFFFAOYSA-N,OO,0.46834229260,0.00000000000,1,G1,34.01400,0.01740,5.25760,2,2,2,2,0,14,0,0,0,0,40.46,11.89207173356,1.00000000000,0.00000000000
A-1903,"2-amino-5-[(4-amino-3-sulfophenyl)[(1E)-3-sulfocyclohexa-2,5-dien-1-ylidene]methyl]-3-methylbenzene-1-sulfonic acid","InChI=1S/C20H19N3O9S3.2Na/c1-10-6-13(9-18(20(10)23)35(30,31)32)19(11-2-4-14(21)16(7-11)33(24,25)26)12-3-5-15(22)17(8-12)34(27,28)29;;/h2-9,23H,21-22H2,1H3,(H,24,25,26)(H,27,28,29)(H,30,31,32);;/q;2*+1/p-2",WZRZTHMJPHPAMU-UHFFFAOYSA-L,[Na+].[Na+].CC1=CC(/C=C(C1=N)[S]([O-])(=O)=O)=C(/c2ccc(N)c(c2)[S](O)(=O)=O)c3ccc(N)c(c3)[S]([O-])(=O)=O,-1.76756324360,0.00000000000,1,G1,585.54900,-4.77953,124.77250,37,11,4,17,5,186,2,0,1,3,244.66,257.41123365949,0.00000342250,1628.58260770705
A-1904,2-hydroxy-4-methylbenzoic acid,"InChI=1S/C8H8O3/c1-5-2-3-6(8(10)11)7(9)4-5/h2-4,9H,1H3,(H,10,11)",NJESAXZANHETJV-UHFFFAOYSA-N,Cc1ccc(C(O)=O)c(O)c1,-1.18226910230,0.85886544885,2,G2,152.14900,1.39882,39.80310,11,2,2,3,1,58,1,0,0,1,57.53,63.91127695273,3.19606966213,291.38868672863
A-1907,2-hydroxy-5-nitrobenzoic acid,"InChI=1S/C7H5NO5/c9-6-2-1-4(8(12)13)3-5(6)7(10)11/h1-3,9H,(H,10,11)",PPDRLQLKHRZIJC-UHFFFAOYSA-N,OC(=O)c1cc(ccc1O)[N+]([O-])=O,-2.26273340800,0.10733508250,2,G3,183.11900,0.99860,41.72050,13,4,2,6,2,68,1,0,0,1,100.67,72.19931056083,3.26705221236,373.14569309988
A-1912,"1,2-dimethyl-4-nitrobenzene","InChI=1S/C8H9NO2/c1-6-3-4-8(9(10)11)5-7(6)2/h3-5H,1-2H3",HFZKOYWDLDYELC-UHFFFAOYSA-N,Cc1ccc(cc1C)[N+]([O-])=O,-3.17945124840,0.00000000000,1,G1,151.16500,2.21164,42.57040,11,2,0,3,1,58,1,0,0,1,43.14,64.81426307079,3.15154966831,294.14357423079
A-1913,1-chloro-2-(chloromethyl)benzene,"InChI=1S/C7H6Cl2/c8-5-6-3-1-2-4-7(6)9/h1-4H,5H2",BASMANVIUSSIIM-UHFFFAOYSA-N,ClCc1ccccc1Cl,-3.20690948990,0.00000000000,1,G1,161.03100,3.07880,41.00900,9,0,0,2,1,48,1,0,0,1,0.00,64.40287768766,3.00652400733,195.86256853720
A-1914,2-phenylacetonitrile,"InChI=1S/C8H7N/c9-7-6-8-4-2-1-3-5-8/h1-5H,6H2",SUSQOBVLVYHIEX-UHFFFAOYSA-N,N#CCc1ccccc1,-3.06874600010,0.00000000000,1,G1,117.15100,1.75268,35.75900,9,1,0,1,1,44,1,0,0,1,23.79,54.55386702976,2.75689962121,207.75928651033
A-1916,"4,4'-methylenebis(2,6-dimethylphenol)","InChI=1S/C17H20O2/c1-10-5-14(6-11(2)16(10)18)9-15-7-12(3)17(19)13(4)8-15/h5-8,18-19H,9H2,1-4H3",AZZWZMUXHALBCQ-UHFFFAOYSA-N,Cc1cc(Cc2cc(C)c(O)c(C)c2)cc(C)c1O,-3.40882485100,0.00000000000,1,G1,256.34500,3.92228,77.96760,19,2,2,2,2,100,2,0,0,2,40.46,113.90167540194,2.36412879743,525.64457089759
A-1921,sodium dodecylbenzenesulfonate,"InChI=1S/C18H30O3S.Na/c1-2-3-4-5-6-7-8-9-10-14-17-21-22(19,20)18-15-12-11-13-16-18;/h11-13,15-16H,2-10,14,17H2,1H3;",GVGUFUZHNYFZLC-UHFFFAOYSA-N,[Na].CCCCCCCCCCCCO[S](=O)(=O)c1ccccc1,-3.54343723900,0.45154499350,2,G3,349.49200,4.93200,97.17780,23,3,0,5,13,127,1,0,0,1,43.37,164.17205560232,0.00000483999,474.29988201592
A-1922,tridecan-1-ol,"InChI=1S/C13H28O/c1-2-3-4-5-6-7-8-9-10-11-12-13-14/h14H,2-13H2,1H3",XFRVVPUIAFSTFO-UHFFFAOYSA-N,CCCCCCCCCCCCCO,-3.30182402820,0.00000000000,1,G1,200.36600,4.28970,63.54680,14,1,1,1,11,86,0,0,0,0,20.23,89.91279015278,2.78476553055,79.23635259028
A-1923,bismuth(3+) citrate,"InChI=1S/C6H8O7.Bi/c7-3(8)1-6(13,5(11)12)2-4(9)10;/h13H,1-2H2,(H,7,8)(H,9,10)(H,11,12);/q;+3/p-3",ANERHPOLUMFRDC-UHFFFAOYSA-K,[Bi+3].OC(CC([O-])=O)(CC([O-])=O)C([O-])=O,-4.55976264010,0.00000000000,1,G1,398.07900,-5.63340,34.95880,14,7,1,8,5,76,0,0,0,0,140.62,97.47372049932,0.00000000000,232.56457479341
A-1925,2-tert-butylcyclohexyl ethyl carbonate,"InChI=1S/C13H24O3/c1-5-15-12(14)16-11-9-7-6-8-10(11)13(2,3)4/h10-11H,5-9H2,1-4H3",ZHWLEUGSDGROJS-UHFFFAOYSA-N,CCOC(=O)OC1CCCCC1C(C)(C)C,-4.32114028280,0.00000000000,1,G1,228.33200,3.76440,63.30800,16,3,0,3,2,94,0,1,1,1,35.53,98.50133780612,2.56918323097,229.82243064641
A-1926,"4-[4-(4-chlorophenyl)-4-hydroxypiperidin-1-yl]-N,N-dimethyl-2,2-diphenylbutanamide","InChI=1S/C29H33ClN2O2.ClH/c1-31(2)27(33)29(24-9-5-3-6-10-24,25-11-7-4-8-12-25)19-22-32-20-17-28(34,18-21-32)23-13-15-26(30)16-14-23;/h3-16,34H,17-22H2,1-2H3;1H",PGYPOBZJRVSMDS-UHFFFAOYSA-N,[H+].[Cl-].CN(C)C(=O)C(CCN1CCC(O)(CC1)c2ccc(Cl)cc2)(c3ccccc3)c4ccccc4,-4.67312156170,0.00000000000,1,G1,513.50900,2.20450,139.10980,35,3,1,6,7,186,3,1,1,4,43.78,220.97070467803,0.00000228166,1047.77661887548
A-1927,hexanoyl hexanoate,"InChI=1S/C12H22O3/c1-3-5-7-9-11(13)15-12(14)10-8-6-4-2/h3-10H2,1-2H3",PKHMTIRCAFTBDS-UHFFFAOYSA-N,CCCCCC(=O)OC(=O)CCCCC,-4.29680504300,0.00000000000,1,G1,214.30500,3.21680,59.38300,15,3,0,3,8,88,0,0,0,0,43.37,92.19020371579,3.44693837809,167.30625318002
A-1930,undecan-2-one,"InChI=1S/C11H22O/c1-3-4-5-6-7-8-9-10-11(2)12/h3-10H2,1-2H3",KYWIYKKSMDLRDC-UHFFFAOYSA-N,CCCCCCCCCC(C)=O,-4.20182066950,0.00000000000,1,G1,170.29600,3.71610,53.29100,12,1,0,1,8,72,0,0,0,0,17.07,76.55019427184,2.86138733944,107.57174002126
A-1931,[2-(tert-butylperoxy)propan-2-yl]benzene,"InChI=1S/C13H20O2/c1-12(2,3)14-15-13(4,5)11-9-7-6-8-10-11/h6-10H,1-5H3",BIISIZOQPWZPPS-UHFFFAOYSA-N,CC(C)(C)OOC(C)(C)c1ccccc1,-4.29093415020,0.00000000000,1,G1,208.30100,3.66840,61.39100,15,2,0,2,3,84,1,0,0,1,18.46,92.14238369503,2.67883396826,296.06203354641
A-1933,2-methylheptyl 2-sulfanylacetate,"InChI=1S/C10H20O2S/c1-9(2)6-4-3-5-7-12-10(11)8-13/h9,13H,3-8H2,1-2H3",RZBBHEJLECUBJT-UHFFFAOYSA-N,CC(C)CCCCCOC(=O)CS,-4.28503689690,0.00000000000,1,G1,204.33500,2.67580,58.11800,13,3,1,3,7,78,0,0,0,0,26.30,86.45386405035,3.03800994451,134.88643538696
A-1934,"octa-1,7-diene","InChI=1S/C8H14/c1-3-5-7-8-6-4-2/h3-4H,1-2,5-8H2",XWJBRBSPAODJER-UHFFFAOYSA-N,C=CCCCCC=C,-4.02327315020,0.00000000000,1,G1,110.20000,2.91880,38.86200,8,0,0,0,5,46,0,0,0,0,0.00,51.91463976424,2.70794881228,52.43856189775
A-1939,2-tert-butylcyclohexyl acetate,"InChI=1S/C12H22O2/c1-9(13)14-11-8-6-5-7-10(11)12(2,3)4/h10-11H,5-8H2,1-4H3/t10-,11+/m0/s1",FINOAUDUYKVGDS-WDEREUQCSA-N,CC(=O)O[C@@H]1CCCC[C@@H]1C(C)(C)C,-4.29733585450,0.00000000000,1,G1,198.30600,3.15440,56.96700,14,2,0,2,1,82,0,1,1,1,26.30,87.02285046221,2.63757859015,202.85749387445
A-1940,"5-chloro-2-(2,4-dichlorophenoxy)phenol","InChI=1S/C12H7Cl3O2/c13-7-1-3-11(9(15)5-7)17-12-4-2-8(14)6-10(12)16/h1-6,16H",XEFQLINVKFYRCS-UHFFFAOYSA-N,Oc1cc(Cl)ccc1Oc2ccc(Cl)cc2Cl,-4.46171606970,0.10124395111,4,G5,289.54500,5.14470,69.65280,17,2,1,5,2,88,2,0,0,2,29.46,113.30607498791,2.31223783549,505.94215924320
A-1942,N-[3-(dimethylamino)propyl]octadecanamide,"InChI=1S/C23H48N2O/c1-4-5-6-7-8-9-10-11-12-13-14-15-16-17-18-20-23(26)24-21-19-22-25(2)3/h4-22H2,1-3H3,(H,24,26)",WWVIUVHFPSALDO-UHFFFAOYSA-N,CCCCCCCCCCCCCCCCCC(=O)NCCCN(C)C,-4.56661423820,0.67121134040,2,G2,368.65000,6.31580,115.72670,26,2,1,3,20,156,0,0,0,0,32.34,164.23919549841,3.11321411828,291.93240539976
A-1944,sodium 4-(4-(2-hydroxynaphthalenylazo)phenylazo)benzenesulphonate,"InChI=1S/C22H16N4O4S.Na/c27-21-14-5-15-3-1-2-4-20(15)22(21)26-25-17-8-6-16(7-9-17)23-24-18-10-12-19(13-11-18)31(28,29)30;/h1-14,25H,(H,28,29,30);/q;+1/b24-23?,26-22-;",AXECONFFMZNCKN-SRZPWQCFSA-N,[Na+].O[S](=O)(=O)c1ccc(cc1)N=Nc2ccc(N\N=C3/C(=O)C=Cc4ccccc34)cc2,-4.65844166000,0.00000000000,1,G1,455.45100,1.76480,117.51730,32,7,2,10,5,154,3,0,1,4,120.55,206.37558207049,0.00000289000,1333.10360699419
A-1946,magnesium(2+) ion dihydroxide,InChI=1S/Mg.2H2O/h;2*1H2/q+2;;/p-2,VTHJTEIRLNZDEV-UHFFFAOYSA-L,[OH-].[OH-].[Mg++],-4.46914487820,0.30175360959,4,G5,58.31900,-0.73440,9.62560,3,2,0,3,0,16,0,0,0,0,60.00,34.59988042483,0.00000000000,2.75488750216
A-1949,"1,3,3-trimethyl-2-oxabicyclo[2.2.2]octane; 1-methyl-4-(prop-1-en-2-yl)cyclohex-1-ene; 2,6,6-trimethylbicyclo[3.1.1]hept-2-ene","InChI=1S/C10H18O.2C10H16/c1-9(2)8-4-6-10(3,11-9)7-5-8;1-7-4-5-8-6-9(7)10(8,2)3;1-8(2)10-6-4-9(3)5-7-10/h8H,4-7H2,1-3H3;4,8-9H,5-6H2,1-3H3;4,10H,1,5-7H2,2-3H3",YZYRWEREXOLDRZ-UHFFFAOYSA-N,CC(=C)C1CCC(=CC1)C.CC2=CCC3CC2C3(C)C.CC45CCC(CC4)C(C)(C)O5,-5.33568593180,1.62480090905,2,G2,426.72900,9.05170,135.19100,31,1,0,1,1,176,0,4,6,6,9.23,193.34981501770,0.00000013200,707.93882273955
A-1953,dodecan-1-ol,"InChI=1S/C12H26O/c1-2-3-4-5-6-7-8-9-10-11-12-13/h13H,2-12H2,1H3",LQZZUXJYWNFBMV-UHFFFAOYSA-N,CCCCCCCCCCCCO,-4.98474645150,0.22595211614,4,G5,186.33900,3.89960,58.92980,13,1,1,1,10,80,0,0,0,0,20.23,83.54784803839,2.75814981843,71.19366193720
A-1954,copper thiocyanate,InChI=1S/CHNS.Cu/c2-1-3;/h3H;/q;+1/p-1,PDZKZMQQDCHTNF-UHFFFAOYSA-M,[Cu+].[S-]C#N,-4.80401091010,0.81360858865,4,G4,121.63100,0.01188,12.97800,4,2,0,3,0,26,0,0,0,0,23.79,40.88251764492,0.00000000000,29.50977500433
A-1956,"O,O,S-tris(4-aminophenyl) thiophosphate","InChI=1S/C18H18N3O3PS/c19-13-1-7-16(8-2-13)22-25(26,23-17-9-3-14(20)4-10-17)24-18-11-5-15(21)6-12-18/h1-12H,19-21H2",MBUAAMOJATXYKR-UHFFFAOYSA-N,Nc1ccc(O[P](=S)(Oc2ccc(N)cc2)Oc3ccc(N)cc3)cc1,-5.30940713650,0.00000000000,1,G1,387.40100,4.19450,108.73220,26,7,3,8,6,134,3,0,0,3,105.75,156.28582741440,1.87696061309,793.48281955436
A-1958,2-[4-[2-[4-[2-(2-methylprop-2-enoyloxy)ethoxy]phenyl]propan-2-yl]phenoxy]ethyl 2-methylprop-2-enoate,"InChI=1S/C27H32O6/c1-19(2)25(28)32-17-15-30-23-11-7-21(8-12-23)27(5,6)22-9-13-24(14-10-22)31-16-18-33-26(29)20(3)4/h7-14H,1,3,15-18H2,2,4-6H3",VIYWVRIBDZTTMH-UHFFFAOYSA-N,CC(=C)C(=O)OCCOc1ccc(cc1)C(C)(C)c2ccc(OCCOC(=O)C(C)=C)cc2,-5.37920188610,0.00000000000,1,G1,452.54700,5.00870,127.54800,33,6,0,6,12,176,2,0,0,2,71.06,195.36064809526,1.87656833289,891.17610121491
A-1959,"(3aR,5aS,9aS,9bR)-3a,6,6,9a-tetramethyl-dodecahydronaphtho[2,1-b]furan","InChI=1S/C16H28O/c1-14(2)8-5-9-15(3)12(14)6-10-16(4)13(15)7-11-17-16/h12-13H,5-11H2,1-4H3/t12-,13+,15-,16+/m0/s1",YPZUZOLGGMJZJO-LQKXBSAESA-N,CC1(C)CCC[C@@]2(C)[C@H]1CC[C@@]3(C)OCC[C@H]23,-5.09948778580,0.25911692010,2,G3,236.39900,4.40800,70.92700,17,1,0,1,0,98,0,3,3,3,9.23,106.30943451270,1.97734479877,317.48686830126
A-1960,"3a,6,6,9a-tetramethyl-dodecahydronaphtho[2,1-b]furan","InChI=1S/C16H28O/c1-14(2)8-5-9-15(3)12(14)6-10-16(4)13(15)7-11-17-16/h12-13H,5-11H2,1-4H3",YPZUZOLGGMJZJO-UHFFFAOYSA-N,CC1(C)CCCC2(C)C1CCC3(C)OCCC23,-5.09948778580,0.00000000000,1,G1,236.39900,4.40800,70.92700,17,1,0,1,0,98,0,3,3,3,9.23,106.30943451270,1.97734479877,317.48686830126
A-1961,[(1E)-2-(diethoxymethyl)hept-1-en-1-yl]benzene,"InChI=1S/C18H28O2/c1-4-7-9-14-17(18(19-5-2)20-6-3)15-16-12-10-8-11-13-16/h8,10-13,15,18H,4-7,9,14H2,1-3H3/b17-15+",MPKOLWUWOADQCX-BMRADRMJSA-N,CCCCC\C(=C/c1ccccc1)C(OCC)OCC,-5.17205651840,0.00000000000,1,G1,276.42000,5.04940,85.60100,20,2,0,2,10,112,1,0,0,1,18.46,123.34819591909,2.83771255001,364.26442904257
A-1963,dilanthanum(3+) ion tricarbonate,"InChI=1S/3CH2O3.2La/c3*2-1(3)4;;/h3*(H2,2,3,4);;/q;;;2*+3/p-6",NZPIUJUFIFZSPW-UHFFFAOYSA-H,[La+3].[La+3].[O-]C([O-])=O.[O-]C([O-])=O.[O-]C([O-])=O,-5.39589211560,0.08222363895,2,G3,457.83600,-7.34100,16.18800,14,9,0,11,0,72,0,0,0,0,189.57,132.93817350560,-0.00000002700,115.60673143260
A-1967,"N,N'-(3,3'-dimethylbiphenyl-4,4'-diyl)bis(3-oxobutanamide)","InChI=1S/C22H24N2O4/c1-13-9-17(5-7-19(13)23-21(27)11-15(3)25)18-6-8-20(14(2)10-18)24-22(28)12-16(4)26/h5-10H,11-12H2,1-4H3,(H,23,27)(H,24,28)",CRRLDLPBQWRVGN-UHFFFAOYSA-N,CC(=O)CC(=O)Nc1ccc(cc1C)c2ccc(NC(=O)CC(C)=O)c(C)c2,-5.32501823410,0.00000000000,1,G1,380.44400,3.80564,109.20740,28,4,2,6,7,146,2,0,0,2,92.34,163.88373123692,2.16782480417,870.04809371993
A-1968,N-(4-acetamidophenyl)-3-hydroxy-2-naphthamide,"InChI=1S/C19H16N2O3/c1-12(22)20-15-6-8-16(9-7-15)21-19(24)17-10-13-4-2-3-5-14(13)11-18(17)23/h2-11,23H,1H3,(H,20,22)(H,21,24)",MSRUOXBBGPWHEG-UHFFFAOYSA-N,CC(=O)Nc1ccc(NC(=O)c2cc3ccccc3cc2O)cc1,-5.25034951180,0.00000000000,1,G1,320.34800,3.75610,94.31170,24,3,3,5,3,120,3,0,0,3,78.43,138.48199051999,1.81637541349,917.54814772247
A-1969,N-(5-chloro-2-methylphenyl)-3-hydroxynaphthalene-2-carboxamide,"InChI=1S/C18H14ClNO2/c1-11-6-7-14(19)10-16(11)20-18(22)15-8-12-4-2-3-5-13(12)9-17(15)21/h2-10,21H,1H3,(H,20,22)",XZOACPDZZYNJER-UHFFFAOYSA-N,Cc1ccc(Cl)cc1NC(=O)c2cc3ccccc3cc2O,-5.23855903190,0.00000000000,1,G1,311.76800,4.75952,89.75500,22,2,2,4,2,110,3,0,0,3,49.33,132.70893034882,1.97992287260,874.09019678014
A-1970,neodymium(3+) ion trihydroxide,InChI=1S/Nd.3H2O/h;3*1H2/q+3;;;/p-3,ZBAQHMBLDSQPHC-UHFFFAOYSA-K,[OH-].[OH-].[OH-].[Nd+3],-5.03534300410,0.00000000000,1,G1,195.26100,-0.53040,5.80740,4,3,0,4,0,25,0,0,0,0,90.00,56.84024526198,0.00000000000,3.24511249784
A-1973,"(1,3-benzothiazol-2-ylsulfanyl)(tert-butyl)amine","InChI=1S/C11H14N2S2/c1-11(2,3)13-15-10-12-8-6-4-5-7-9(8)14-10/h4-7,13H,1-3H3",IUJLOAKJZQBENM-UHFFFAOYSA-N,CC(C)(C)NSc1sc2ccccc2n1,-5.13672238900,0.12027462415,2,G3,238.38100,3.69150,68.36570,15,4,1,4,2,80,2,0,0,2,24.92,98.24119707978,2.15626897006,423.80101539282
A-1974,hydrogen telluride,InChI=1S/Te,PORWMNRCUJJQNO-UHFFFAOYSA-N,[Te],-4.87540175300,0.00000000000,1,G1,127.60000,-0.38080,5.75400,1,0,0,1,0,6,0,0,0,0,0.00,24.21910350453,0.00000000000,0.00000000000
A-1978,"3,7-dimethyloct-6-en-1-yl butyrate","InChI=1S/C14H26O2/c1-5-7-14(15)16-11-10-13(4)9-6-8-12(2)3/h8,13H,5-7,9-11H2,1-4H3",XQPZQXTWYZAXAK-UHFFFAOYSA-N,CCCC(=O)OCCC(C)CCC=C(C)C,-5.14261208090,0.00000000000,1,G1,226.36000,4.10230,68.31300,16,2,0,2,8,94,0,0,0,0,26.30,100.06896281235,3.46650895652,214.77523112581
A-1981,3-hydroxy-N-(4-methoxyphenyl)-2-naphthamide,"InChI=1S/C18H15NO3/c1-22-15-8-6-14(7-9-15)19-18(21)16-10-12-4-2-3-5-13(12)11-17(16)20/h2-11,20H,1H3,(H,19,21)",UIXFPIHXQQZAGX-UHFFFAOYSA-N,COc1ccc(NC(=O)c2cc3ccccc3cc2O)cc1,-5.26322465490,0.00000000000,1,G1,293.32200,3.80630,86.56000,22,3,2,4,3,110,3,0,0,3,58.56,127.51920935144,1.88820404404,825.35992208929
A-1982,4-{1-[4-(cyanooxy)phenyl]ethyl}phenyl cyanate,"InChI=1S/C16H12N2O2/c1-12(13-2-6-15(7-3-13)19-10-17)14-4-8-16(9-5-14)20-11-18/h2-9,12H,1H3",SIZDMAYTWUINIG-UHFFFAOYSA-N,CC(c1ccc(OC#N)cc1)c2ccc(OC#N)cc2,-5.21795088870,0.00000000000,1,G1,264.28400,3.55816,72.88300,20,4,0,4,4,98,2,0,0,2,66.04,116.96051560510,2.15829451318,589.36160729848
A-1984,dichlorodioctylstannane,"InChI=1S/2C8H17.2ClH.Sn/c2*1-3-5-7-8-6-4-2;;;/h2*1,3-8H2,2H3;2*1H;/q;;;;+2/p-2",SBOSGIJGEHWBKV-UHFFFAOYSA-L,CCCCCCCC[Sn](Cl)(Cl)CCCCCCCC,-5.41504120120,0.00000000000,1,G1,416.06500,7.62720,93.82600,19,0,0,3,14,116,0,0,0,0,0.00,132.87419419194,3.36235410796,165.58774655092
A-1985,didysprosium trioxide,InChI=1S/2Dy.3O/q2*+3;3*-2,GEZAXHSNIQTPMM-UHFFFAOYSA-N,[O--].[O--].[O--].[Dy+3].[Dy+3],-5.36758535620,0.00000000000,1,G1,372.99700,-0.35640,2.05950,5,0,0,5,0,38,0,0,0,0,85.50,90.86093538201,0.00000000000,4.85475297227
A-1986,dodecanal,"InChI=1S/C12H24O/c1-2-3-4-5-6-7-8-9-10-11-12-13/h12H,2-11H2,1H3",HFJRKMMYBMWEAD-UHFFFAOYSA-N,CCCCCCCCCCCC=O,-5.06145954760,0.00000000000,1,G1,184.32300,4.10620,57.90800,13,1,0,1,10,78,0,0,0,0,17.07,82.91513638624,2.79199883975,99.29759899885
A-1991,"2-ethyl-2-methyl-1,3-dihydroperimidine","InChI=1S/C14H16N2/c1-3-14(2)15-11-8-4-6-10-7-5-9-12(16-14)13(10)11/h4-9,15-16H,3H2,1-2H3",QOYINWMUFFDLBI-UHFFFAOYSA-N,CCC1(C)Nc2cccc3cccc(N1)c23,-3.24776056540,0.00000000000,1,G1,212.29600,3.80340,69.88940,16,2,2,2,1,82,2,0,1,3,24.06,95.66672932251,2.27537179139,504.67668062537
A-1994,2-(2-{2-[(2-ethylhexanoyl)oxy]ethoxy}ethoxy)ethyl 2-ethylhexanoate,"InChI=1S/C22H42O6/c1-5-9-11-19(7-3)21(23)27-17-15-25-13-14-26-16-18-28-22(24)20(8-4)12-10-6-2/h19-20H,5-18H2,1-4H3",FRQDZJMEHSJOPU-UHFFFAOYSA-N,CCCCC(CC)C(=O)OCCOCCOCCOC(=O)C(CC)CCCC,-5.42015213440,0.05378232025,2,G3,402.57200,4.53880,110.16800,28,6,0,6,19,166,0,0,0,0,71.06,171.18026054827,3.56704716839,349.22326730711
A-1995,"2-hydroxy-1-{1-[4-(2-hydroxy-2-methylpropanoyl)phenyl]-1,3,3-trimethyl-2,3-dihydro-1H-inden-5-yl}-2-methylpropan-1-one; 2-hydroxy-1-{3-[4-(2-hydroxy-2-methylpropanoyl)phenyl]-1,1,3-trimethyl-2,3-dihydro-1H-inden-5-yl}-2-methylpropan-1-one; 2-hydroxy-2-methyl-1-[4-(prop-1-en-2-yl)phenyl]propan-1-one","InChI=1S/2C26H32O4.C13H16O2/c1-23(2)15-26(7,18-11-8-16(9-12-18)21(27)24(3,4)29)19-13-10-17(14-20(19)23)22(28)25(5,6)30;1-23(2)15-26(7,18-11-8-16(9-12-18)21(27)24(3,4)29)20-14-17(10-13-19(20)23)22(28)25(5,6)30;1-9(2)10-5-7-11(8-6-10)12(14)13(3,4)15/h2*8-14,29-30H,15H2,1-7H3;5-8,15H,1H2,2-4H3",UKDKXXBYNYCFSX-UHFFFAOYSA-N,CC(=C)c1ccc(cc1)C(=O)C(C)(C)O.CC(C)(O)C(=O)c2ccc(cc2)C3(C)CC(C)(C)c4cc(ccc34)C(=O)C(C)(C)O.CC(C)(O)C(=O)c5ccc(cc5)C6(C)CC(C)(C)c7ccc(cc67)C(=O)C(C)(C)O,-5.82732887920,0.14763883340,2,G3,1021.34500,11.83550,298.25350,75,10,5,10,13,400,5,0,2,7,186.50,444.52193017665,0.00000022018,3007.61586739072
A-1997,"2-(1-amino-9,10-dioxo-9,10-dihydroanthracen-2-yl)-5H,10H-anthra[2,3-d][1,3]oxazole-5,10-dione","InChI=1S/C29H14N2O5/c30-24-18(10-9-17-23(24)28(35)16-8-4-3-7-15(16)25(17)32)29-31-21-11-19-20(12-22(21)36-29)27(34)14-6-2-1-5-13(14)26(19)33/h1-12H,30H2",RHEVAQGXLUQWBM-UHFFFAOYSA-N,Nc1c(ccc2C(=O)c3ccccc3C(=O)c12)c4oc5cc6C(=O)c7ccccc7C(=O)c6cc5n4,-5.49641298220,0.00000000000,1,G1,470.44000,4.62780,130.47140,36,7,1,7,1,170,5,0,2,7,120.33,202.73241276216,1.38547679292,1806.70988514374
A-1998,N-(4-ethoxyphenyl)-3-hydroxy-2-naphthamide,"InChI=1S/C19H17NO3/c1-2-23-16-9-7-15(8-10-16)20-19(22)17-11-13-5-3-4-6-14(13)12-18(17)21/h3-12,21H,2H2,1H3,(H,20,22)",FYJKEJZGNQVNLC-UHFFFAOYSA-N,CCOc1ccc(NC(=O)c2cc3ccccc3cc2O)cc1,-5.31154054540,0.00000000000,1,G1,307.34900,4.19640,91.17700,23,3,2,4,4,116,3,0,0,3,58.56,133.88415146584,1.83559143864,840.86258184001
A-1999,"N-(5-chloro-2,4-dimethoxyphenyl)-3-hydroxy-2-naphthamide","InChI=1S/C19H16ClNO4/c1-24-17-10-18(25-2)15(9-14(17)20)21-19(23)13-7-11-5-3-4-6-12(11)8-16(13)22/h3-10,22H,1-2H3,(H,21,23)",XDWATWCCUTYUDE-UHFFFAOYSA-N,COc1cc(OC)c(NC(=O)c2cc3ccccc3cc2O)cc1Cl,-5.37754058060,0.00000000000,1,G1,357.79300,4.46830,98.12200,25,4,2,6,4,128,3,0,0,3,67.79,149.30096292223,1.97420743568,955.55211191068
A-2000,Vat brown 3,"InChI=1S/C42H23N3O6/c46-37-24-14-7-8-15-25(24)38(47)34-33(37)30(44-42(51)22-12-5-2-6-13-22)20-28-23-18-19-27-32(35(23)45-36(28)34)40(49)26-16-9-17-29(31(26)39(27)48)43-41(50)21-10-3-1-4-11-21/h1-20,45H,(H,43,50)(H,44,51)",AAKMSGQPNUGLAZ-UHFFFAOYSA-N,O=C(Nc1cccc2C(=O)c3c4[nH]c5c(cc(NC(=O)c6ccccc6)c7C(=O)c8ccccc8C(=O)c57)c4ccc3C(=O)c12)c9ccccc9,-5.64716185400,0.00000000000,1,G1,665.66100,6.75490,202.07110,51,6,3,9,4,242,9,0,0,9,142.27,285.64348033932,1.34631213585,3199.45730180050
A-2001,1-(4-methoxyphenyl)-2-[(3-methoxyphenyl)sulfanyl]ethan-1-one,"InChI=1S/C16H16O3S/c1-18-13-8-6-12(7-9-13)16(17)11-20-15-5-3-4-14(10-15)19-2/h3-10H,11H2,1-2H3",CXSKVBXJDSVPKS-UHFFFAOYSA-N,COc1ccc(cc1)C(=O)CSc2cccc(OC)c2,-5.28472526500,0.04898350655,4,G5,288.36800,3.67880,81.04250,20,4,0,4,6,104,2,0,0,2,35.53,122.45998836757,1.96519327165,578.53078563967
A-2004,"Anthra[2,1,9-mna]naphtho[2,3-h]acridine-5,10,15(16H)-trione","InChI=1S/C31H15NO3/c33-29-19-6-2-1-5-15(19)16-13-14-24-26-17(9-11-22(29)25(16)26)18-10-12-23-27(28(18)32-24)31(35)21-8-4-3-7-20(21)30(23)34/h1-14,32H",HHKPGQSPFVLKMV-UHFFFAOYSA-N,O=C1c2ccccc2C(=O)c3c4Nc5ccc6c7ccccc7C(=O)c8ccc(c4ccc13)c5c68,-5.50656784300,0.00000000000,1,G1,449.46500,6.04330,144.51670,35,3,1,4,0,162,8,0,0,8,67.00,195.88629400286,1.67190504119,2385.67699240738