ID,Name,InChI,InChIKey,SMILES,Solubility,SD,Ocurrences,Group,MolWt,MolLogP,MolMR,HeavyAtomCount,NumHAcceptors,NumHDonors,NumHeteroatoms,NumRotatableBonds,NumValenceElectrons,NumAromaticRings,NumSaturatedRings,NumAliphaticRings,RingCount,TPSA,LabuteASA,BalabanJ,BertzCT
A-2098,"17-hydroxy-3-methoxyestra-2,5(10)-diene-17-carbonitrile","InChI=1S/C20H27NO2/c1-19-9-7-16-15-6-4-14(23-2)11-13(15)3-5-17(16)18(19)8-10-20(19,22)12-21/h4,16-18,22H,3,5-11H2,1-2H3",MEEGGHJZTZFSBQ-UHFFFAOYSA-N,COC1=CCC2=C(CCC3C2CCC4(C)C3CCC4(O)C#N)C1,-5.68324244760,0.00000000000,1,G1,313.44100,4.09808,88.19380,23,3,1,3,1,124,0,2,4,4,53.25,138.57097918605,1.62788318672,628.04315657495
A-2099,"Dodecahydro-3,8,8,11a-tetramethyl-5H-3,5a-epoxynaphth(2,1-c)oxepin","InChI=1S/C18H30O2/c1-15(2)8-5-9-16(3)13(15)7-11-18-12-19-17(4,20-18)10-6-14(16)18/h13-14H,5-12H2,1-4H3",PHNCACYNYORRNS-UHFFFAOYSA-N,CC1(C)CCCC2(C)C1CCC34COC(C)(CCC23)O4,-5.64538483660,0.00000000000,1,G1,278.43600,4.52460,79.36000,20,2,0,2,0,114,0,4,4,4,18.46,123.14703281747,1.72837577139,431.13415946277
A-2100,1-methyl-4-(propan-2-yl)cyclohexane,"InChI=1S/C10H20/c1-8(2)10-6-4-9(3)5-7-10/h8-10H,4-7H2,1-3H3",CFJYNSNXFXLKNS-UHFFFAOYSA-N,CC1CCC(CC1)C(C)C,-5.35457310750,0.17261344625,2,G3,140.27000,3.46870,45.96000,10,0,0,0,1,60,0,1,1,1,0.00,65.01789890387,2.25990259622,86.21143267167
A-2101,barium(2+) ion bis(5-chloro-2-[(E)-2-(2-hydroxynaphthalen-1-yl)diazen-1-yl]-4-methylbenzene-1-sulfonate),"InChI=1S/2C17H13ClN2O4S.Ba/c2*1-10-8-14(16(9-13(10)18)25(22,23)24)19-20-17-12-5-3-2-4-11(12)6-7-15(17)21;/h2*2-9,19H,1H3,(H,22,23,24);/q;;+2/p-2/b2*20-17-;",JNIGYQOBELCEIZ-MAKDUZDQSA-L,[Ba++].Cc1cc(N\N=C\2C(=O)C=Cc3ccccc23)c(cc1Cl)[S]([O-])(=O)=O.Cc4cc(N\N=C\5C(=O)C=Cc6ccccc56)c(cc4Cl)[S]([O-])(=O)=O,-6.15648759900,0.90712619350,5,G4,888.95400,5.54844,195.34380,51,12,2,17,6,256,4,0,2,6,197.32,343.46070027542,0.00000022431,2261.31794269107
A-2104,(2R)-heptan-2-yl 2-[(5-chloroquinolin-8-yl)oxy]acetate (2S)-heptan-2-yl 2-[(5-chloroquinolin-8-yl)oxy]acetate,"InChI=1S/C18H22ClNO3/c1-3-4-5-7-13(2)23-17(21)12-22-16-10-9-15(19)14-8-6-11-20-18(14)16/h6,8-11,13H,3-5,7,12H2,1-2H3",COYBRKAVBMYYSF-UHFFFAOYSA-N,CCCCCC(C)OC(=O)COc1ccc(Cl)c2cccnc12,-5.74796953230,0.08598716281,4,G5,335.83100,4.77900,91.94400,23,4,0,5,8,124,2,0,0,2,48.42,141.30907344769,1.90883385186,659.75679848043
A-2106,2-[(2-hydroxyethyl)(octadecyl)amino]ethan-1-ol,"InChI=1S/C22H47NO2/c1-2-3-4-5-6-7-8-9-10-11-12-13-14-15-16-17-18-23(19-21-24)20-22-25/h24-25H,2-22H2,1H3",NDLNTMNRNCENRZ-UHFFFAOYSA-N,CCCCCCCCCCCCCCCCCCN(CCO)CCO,-5.77527419170,0.00000000000,1,G1,357.62300,5.53450,110.15760,25,3,2,3,21,152,0,0,0,0,43.70,157.75133660475,3.13276079398,230.06710916896
A-2110,(10Z)-1-oxacycloheptadec-10-en-2-one,"InChI=1S/C16H28O2/c17-16-14-12-10-8-6-4-2-1-3-5-7-9-11-13-15-18-16/h1,3H,2,4-15H2/b3-1-",QILMAYXCYBTEDM-IWQZZHSRSA-N,O=C1CCCCCCC\C=C/CCCCCCO1,-5.62939755460,0.00000000000,1,G1,252.39800,4.78060,75.50300,18,2,0,2,0,104,0,0,1,1,26.30,111.79301588762,2.16880934699,211.25145951470
A-2113,"methyl 2-amino-4-[(2,5-dichlorophenyl)carbamoyl]benzoate","InChI=1S/C15H12Cl2N2O3/c1-22-15(21)10-4-3-9(7-13(10)18)19-14(20)11-6-8(16)2-5-12(11)17/h2-7H,18H2,1H3,(H,19,20)",PDWBHZYCNIOXCB-UHFFFAOYSA-N,COC(=O)c1ccc(NC(=O)c2cc(Cl)ccc2Cl)cc1N,-5.79006498550,0.00000000000,1,G1,339.17800,3.61450,86.60910,22,4,2,7,3,114,2,0,0,2,81.42,136.51619843273,2.23668079238,747.56257308863
A-2115,1-{[3-(triethoxysilyl)propyl]sulfanyl}octan-1-one,"InChI=1S/C17H36O4SSi/c1-5-9-10-11-12-14-17(18)22-15-13-16-23(19-6-2,20-7-3)21-8-4/h5-16H2,1-4H3",JPPLPDOXWBVPCW-UHFFFAOYSA-N,CCCCCCCC(=O)SCCC[Si](OCC)(OCC)OCC,-5.83268046140,1.35899662085,2,G2,364.62400,5.04520,100.89700,23,5,0,6,16,138,0,0,0,0,44.76,147.95456550421,3.92594745544,272.74738231463
A-2117,"1,1':3',1''-terphenyl-2'-ol","InChI=1S/C18H14O/c19-18-16(14-8-3-1-4-9-14)12-7-13-17(18)15-10-5-2-6-11-15/h1-13,19H",ATGFTMUSEPZNJD-UHFFFAOYSA-N,Oc1c(cccc1c2ccccc2)c3ccccc3,-5.68391010490,0.00000000000,1,G1,246.30900,4.72620,78.97880,19,1,1,1,2,92,3,0,0,3,20.23,112.33982528382,2.15298898375,614.81731632284
A-2118,"(5E)-5-[(4-chlorophenyl)methylidene]-2,2-dimethylcyclopentan-1-one","InChI=1S/C14H15ClO/c1-14(2)8-7-11(13(14)16)9-10-3-5-12(15)6-4-10/h3-6,9H,7-8H2,1-2H3/b11-9+",DHZKFHRKOKWCKA-PKNBQFBNSA-N,CC1(C)CC\C(=C/c2ccc(Cl)cc2)C1=O,-5.67159119360,0.00000000000,1,G1,234.72600,4.11250,67.45100,16,1,0,2,1,84,1,1,1,2,17.07,101.12029417588,2.26417973575,440.30807522610
A-2119,"2-{[3,3-bis(3-tert-butyl-4-hydroxyphenyl)butanoyl]oxy}ethyl 3,3-bis(3-tert-butyl-4-hydroxyphenyl)butanoate","InChI=1S/C50H66O8/c1-45(2,3)35-25-31(15-19-39(35)51)49(13,32-16-20-40(52)36(26-32)46(4,5)6)29-43(55)57-23-24-58-44(56)30-50(14,33-17-21-41(53)37(27-33)47(7,8)9)34-18-22-42(54)38(28-34)48(10,11)12/h15-22,25-28,51-54H,23-24,29-30H2,1-14H3",JOWXNCPELQZFHF-UHFFFAOYSA-N,CC(C)(C)c1cc(ccc1O)C(C)(CC(=O)OCCOC(=O)CC(C)(c2ccc(O)c(c2)C(C)(C)C)c3ccc(O)c(c3)C(C)(C)C)c4ccc(O)c(c4)C(C)(C)C,-6.20143536240,0.00000000000,1,G1,795.07000,10.87780,231.28720,58,8,4,8,11,314,4,0,0,4,133.52,345.81825037989,1.59590031435,1852.79240546497
A-2122,"(1-methylethyl)-1,1'-biphenyl","InChI=1S/C15H16/c1-12(2)13-8-10-15(11-9-13)14-6-4-3-5-7-14/h3-12H,1-2H3",KWSHGRJUSUJPQD-UHFFFAOYSA-N,CC(C)c1ccc(cc1)c2ccccc2,-5.60985777430,0.13914219180,3,G5,196.29300,4.47700,65.96700,15,0,0,0,2,76,2,0,0,2,0.00,91.58332366875,2.32124831840,409.55111534016
A-2126,"4-[(4-amino-3,5-diethylphenyl)methyl]-2,6-diethylaniline","InChI=1S/C21H30N2/c1-5-16-10-14(11-17(6-2)20(16)22)9-15-12-18(7-3)21(23)19(8-4)13-15/h10-13H,5-9,22-23H2,1-4H3",NWIVYGKSHSJHEF-UHFFFAOYSA-N,CCc1cc(Cc2cc(CC)c(N)c(CC)c2)cc(CC)c1N,-5.84858794710,0.00000000000,1,G1,310.48500,4.69140,102.02680,23,2,2,2,6,124,2,0,0,2,52.04,140.45275774916,2.42575008426,576.72630451169
A-2129,2-[4-(2-{4-[2-(prop-2-enoyloxy)ethoxy]phenyl}propan-2-yl)phenoxy]ethyl prop-2-enoate,"InChI=1S/C25H28O6/c1-5-23(26)30-17-15-28-21-11-7-19(8-12-21)25(3,4)20-9-13-22(14-10-20)29-16-18-31-24(27)6-2/h5-14H,1-2,15-18H2,3-4H3",XWUNIDGEMNBBAQ-UHFFFAOYSA-N,CC(C)(c1ccc(OCCOC(=O)C=C)cc1)c2ccc(OCCOC(=O)C=C)cc2,-5.99948160300,0.00000000000,1,G1,424.49300,4.22850,118.31400,31,6,0,6,12,164,2,0,0,2,71.06,182.63076386646,1.89774906113,807.73316521054
A-2131,"Benzenamine, N-phenyl-, styrenated","InChI=1S/C28H27N/c1-21(23-9-5-3-6-10-23)25-13-17-27(18-14-25)29-28-19-15-26(16-20-28)22(2)24-11-7-4-8-12-24/h3-22,29H,1-2H3",BRWSDEFCJGIRLV-UHFFFAOYSA-N,CC(c1ccccc1)c2ccc(Nc3ccc(cc3)C(C)c4ccccc4)cc2,-5.96416876170,0.00000000000,1,G1,377.53100,7.73380,124.08470,29,1,1,1,6,144,4,0,0,4,12.03,173.61231637888,1.42879198637,932.16553832390
A-2132,"1,3-dimethyl-5-propylbenzene; 6,6,22,22-tetrabutyloctapentacontane; anthracene; phenylbenzene; tetraheptacontane","InChI=1S/2C74H150.C14H10.C12H10.C11H16/c1-7-13-19-20-21-22-23-24-25-26-27-28-29-30-31-32-33-34-35-36-37-38-39-40-41-42-43-44-46-49-53-56-59-63-71-74(67-17-11-5,68-18-12-6)72-64-60-57-54-51-48-45-47-50-52-55-58-62-70-73(65-15-9-3,66-16-10-4)69-61-14-8-2;1-3-5-7-9-11-13-15-17-19-21-23-25-27-29-31-33-35-37-39-41-43-45-47-49-51-53-55-57-59-61-63-65-67-69-71-73-74-72-70-68-66-64-62-60-58-56-54-52-50-48-46-44-42-40-38-36-34-32-30-28-26-24-22-20-18-16-14-12-10-8-6-4-2;1-2-6-12-10-14-8-4-3-7-13(14)9-11(12)5-1;1-3-7-11(8-4-1)12-9-5-2-6-10-12;1-4-5-11-7-9(2)6-10(3)8-11/h7-72H2,1-6H3;3-74H2,1-2H3;1-10H;1-10H;6-8H,4-5H2,1-3H3",UPDSRWJBVPKSST-UHFFFAOYSA-N,CCCCCCCCCCCCCCCCCCCCCCCCCCCCCCCCCCCCCCCCCCCCCCCCCCCCCCCCCCCCCCCCCCCCCCCCCC.CCCCCCCCCCCCCCCCCCCCCCCCCCCCCCCCCCCCC(CCCC)(CCCC)CCCCCCCCCCCCCCCC(CCCC)(CCCC)CCCCC.CCCc1cc(C)cc(C)c1.c2ccc(cc2)c3ccccc3.c4ccc5cc6ccccc6cc5c4,-6.80630261090,0.59725717095,2,G2,2560.72300,68.54114,850.64700,185,0,0,0,141,1076,6,0,0,6,0.00,1165.82548291796,0.00000095929,3977.44504162396
A-2135,"2,6-diethylanthracene; 9,9-dipropylicosane; tricosane","InChI=1S/C26H54.C23H48.C18H18/c1-5-9-11-13-15-16-17-19-21-25-26(22-7-3,23-8-4)24-20-18-14-12-10-6-2;1-3-5-7-9-11-13-15-17-19-21-23-22-20-18-16-14-12-10-8-6-4-2;1-3-13-5-7-15-12-18-10-14(4-2)6-8-16(18)11-17(15)9-13/h5-25H2,1-4H3;3-23H2,1-2H3;5-12H,3-4H2,1-2H3",XIJNZQQUHMHCIW-UHFFFAOYSA-N,CCCCCCCCCCCCCCCCCCCCCCC.CCCCCCCCCCCC(CCC)(CCC)CCCCCCCC.CCc1ccc2cc3cc(CC)ccc3cc2c1,-6.36440886490,0.59725717090,2,G2,925.69700,24.58060,310.60100,67,0,0,0,43,388,3,0,0,3,0.00,422.14832655305,0.00000050850,1372.16984010217
A-2136,2-ethylhexyl benzoate,"InChI=1S/C15H22O2/c1-3-5-9-13(4-2)12-17-15(16)14-10-7-6-8-11-14/h6-8,10-11,13H,3-5,9,12H2,1-2H3",UADWUILHKRXHMM-UHFFFAOYSA-N,CCCCC(CC)COC(=O)c1ccccc1,-5.76778458100,0.00000000000,1,G1,234.33900,4.05980,70.03050,17,2,0,2,7,94,1,0,0,1,26.30,103.99094947862,2.36242016481,318.95352151980
A-2137,"3,3,5-trimethylcyclohexyl 2-hydroxybenzoate","InChI=1S/C16H22O3/c1-11-8-12(10-16(2,3)9-11)19-15(18)13-6-4-5-7-14(13)17/h4-7,11-12,17H,8-10H2,1-3H3",WSSJONWNBBTCMG-UHFFFAOYSA-N,CC1CC(CC(C)(C)C1)OC(=O)c2ccccc2O,-5.81681942180,0.00000000000,1,G1,262.34900,3.76380,74.10630,19,3,1,3,2,104,1,1,1,2,46.53,114.14429419168,2.05082105408,464.81677938817
A-2138,"5,9-diethylhexadecane; anthracene; icosane","InChI=1S/2C20H42.C14H10/c1-5-9-11-12-13-16-20(8-4)18-14-17-19(7-3)15-10-6-2;1-3-5-7-9-11-13-15-17-19-20-18-16-14-12-10-8-6-4-2;1-2-6-12-10-14-8-4-3-7-13(14)9-11(12)5-1/h19-20H,5-18H2,1-4H3;3-20H2,1-2H3;1-10H",KESSGIXNZDGGFC-UHFFFAOYSA-N,CCCCCCCCCCCCCCCCCCCC.CCCCCCCC(CC)CCCC(CC)CCCC.c1ccc2cc3ccccc3cc2c1,-6.26913101750,0.59725717095,2,G2,743.34600,19.80080,250.22200,54,0,0,0,32,310,3,0,0,3,0.00,339.40407906589,0.00000040976,1051.84820142326
A-2140,"methyl 4-[(2,5-dichlorophenyl)carbamoyl]-2-nitrobenzoate","InChI=1S/C15H10Cl2N2O5/c1-24-15(21)10-4-2-8(6-13(10)19(22)23)14(20)18-12-7-9(16)3-5-11(12)17/h2-7H,1H3,(H,18,20)",BVBSCSYCFCDVEU-UHFFFAOYSA-N,COC(=O)c1ccc(cc1[N+]([O-])=O)C(=O)Nc2cc(Cl)ccc2Cl,-5.96515464600,0.00000000000,1,G1,369.16000,3.94050,88.85110,24,5,1,9,4,124,2,0,0,2,98.54,145.82928345822,2.36135974225,838.60927841214
A-2142,"3,7-dimethyloct-6-en-1-yl (2E)-2-methylbut-2-enoate","InChI=1S/C15H26O2/c1-6-14(5)15(16)17-11-10-13(4)9-7-8-12(2)3/h6,8,13H,7,9-11H2,1-5H3/b14-6+",UCFQYMKLDPWFHZ-MKMNVTDBSA-N,C\C=C(/C)C(=O)OCCC(C)CCC=C(C)C,-5.79179268890,0.00000000000,1,G1,238.37100,4.26840,72.83600,17,2,0,2,7,98,0,0,0,0,26.30,105.74430189456,3.67963650705,283.29694510364
A-2143,"3,3,4,4,5,5,6,6,7,7,8,8,8-tridecafluorooctyl 2-methylprop-2-enoate","InChI=1S/C12H9F13O2/c1-5(2)6(26)27-4-3-7(13,14)8(15,16)9(17,18)10(19,20)11(21,22)12(23,24)25/h1,3-4H2,2H3",CDXFIRXEAJABAZ-UHFFFAOYSA-N,CC(=C)C(=O)OCCC(F)(F)C(F)(F)C(F)(F)C(F)(F)C(F)(F)C(F)(F)F,-6.05816884570,0.47712125475,2,G3,432.17600,5.23460,61.18000,27,2,0,15,8,160,0,0,0,0,26.30,141.49103882160,5.80475028794,576.33430609069
A-2145,"1-(4-{[4-(2,5-dioxo-2,5-dihydro-1H-pyrrol-1-yl)phenyl]methyl}phenyl)-2,5-dihydro-1H-pyrrole-2,5-dione","InChI=1S/C21H14N2O4/c24-18-9-10-19(25)22(18)16-5-1-14(2-6-16)13-15-3-7-17(8-4-15)23-20(26)11-12-21(23)27/h1-12H,13H2",XQUPVDVFXZDTLT-UHFFFAOYSA-N,O=C1C=CC(=O)N1c2ccc(Cc3ccc(cc3)N4C(=O)C=CC4=O)cc2,-5.99800854380,0.00000000000,1,G1,358.35300,2.13620,98.95600,27,4,0,6,4,132,2,0,2,4,74.76,154.54786372429,1.46539790673,897.65206511091
A-2147,tetradecan-1-ol,"InChI=1S/C14H30O/c1-2-3-4-5-6-7-8-9-10-11-12-13-14-15/h15H,2-14H2,1H3",HLZKNKRTKFSKGZ-UHFFFAOYSA-N,CCCCCCCCCCCCCCO,-5.78714255700,0.30161849535,7,G5,214.39300,4.67980,68.16380,15,1,1,1,12,92,0,0,0,0,20.23,96.27773226718,2.80792573888,89.51182269699
A-2149,diphenyl 4-(propan-2-yl)phenyl phosphate phenyl bis[4-(propan-2-yl)phenyl] phosphate triphenyl phosphate tris[4-(propan-2-yl)phenyl] phosphate,"InChI=1S/C27H33O4P/c1-19(2)22-7-13-25(14-8-22)29-32(28,30-26-15-9-23(10-16-26)20(3)4)31-27-17-11-24(12-18-27)21(5)6/h7-21H,1-6H3",ANVREEJNGJMLOV-UHFFFAOYSA-N,CC(C)c1ccc(O[P](=O)(Oc2ccc(cc2)C(C)C)Oc3ccc(cc3)C(C)C)cc1,-6.13713439540,0.02307606220,2,G3,452.53100,8.70170,131.08350,32,4,0,5,9,170,3,0,0,3,44.76,191.72031692419,1.86650418067,899.82126027671
A-2150,trichloro(octyl)stannane,"InChI=1S/C8H17.3ClH.Sn/c1-3-5-7-8-6-4-2;;;;/h1,3-8H2,2H3;3*1H;/q;;;;+3/p-3",INTLMJZQCBRQAT-UHFFFAOYSA-K,CCCCCCCC[Sn](Cl)(Cl)Cl,-6.01078035530,0.00000000000,1,G1,338.29400,5.00220,61.49600,12,0,0,4,7,74,0,0,0,0,0.00,90.97638677575,3.00920807932,100.96632017383
A-2151,"N-(1,3-benzothiazol-2-ylsulfanyl)cyclohexanamine","InChI=1S/C13H16N2S2/c1-2-6-10(7-3-1)15-17-13-14-11-8-4-5-9-12(11)16-13/h4-5,8-10,15H,1-3,6-7H2",DEQZTKGFXNUBJL-UHFFFAOYSA-N,C1CCC(CC1)NSc2sc3ccccc3n2,-5.91714268010,0.12348498678,3,G5,264.41900,4.22570,75.48570,17,4,1,4,3,90,2,1,1,3,24.92,109.96525015504,1.63720197510,455.88004875061
A-2152,copper,InChI=1S/Cu,RYGMFSIKBFXOCR-UHFFFAOYSA-N,[Cu],-5.29793824010,1.27859634764,4,G4,63.54600,-0.00250,0.00000,1,0,0,1,0,11,0,0,0,0,0.00,17.96409803212,0.00000000000,0.00000000000
A-2154,"3-[(7Z)-pentadec-7-en-1-yl]phenol; 3-[(7Z,10Z)-pentadeca-7,10,14-trien-1-yl]phenol; 3-[(7Z,10Z)-pentadeca-7,10-dien-1-yl]phenol; 3-pentadecylphenol","InChI=1S/C21H36O.C21H34O.C21H32O.C21H30O/c4*1-2-3-4-5-6-7-8-9-10-11-12-13-14-16-20-17-15-18-21(22)19-20/h15,17-19,22H,2-14,16H2,1H3;8-9,15,17-19,22H,2-7,10-14,16H2,1H3;5-6,8-9,15,17-19,22H,2-4,7,10-14,16H2,1H3;2,5-6,8-9,15,17-19,22H,1,3-4,7,10-14,16H2/b;9-8-;2*6-5-,9-8-",BQLBNJKYLGWYQM-ZWUGTYOTSA-N,CCCCCCCCCCCCCCCc1cccc(O)c1.CCCCCCC\C=C/CCCCCCc2cccc(O)c2.CCCC/C=C\C\C=C/CCCCCCc3cccc(O)c3.Oc4cccc(CCCCCC\C=C/C/C=C\CCC=C)c4,-6.59703882570,0.24371987575,2,G3,1205.97600,26.75960,389.45920,88,4,4,4,51,492,4,0,0,4,80.92,542.55602287775,0.00000058667,2280.01259668893
A-2155,N-(2-ethoxyphenyl)-N'-(2-ethylphenyl)ethanediamide,"InChI=1S/C18H20N2O3/c1-3-13-9-5-6-10-14(13)19-17(21)18(22)20-15-11-7-8-12-16(15)23-4-2/h5-12H,3-4H2,1-2H3,(H,19,21)(H,20,22)",YIMHRDBSVCPJOV-UHFFFAOYSA-N,CCOc1ccccc1NC(=O)C(=O)Nc2ccccc2CC,-6.01754667250,0.00000000000,1,G1,312.36900,3.22490,90.69040,23,3,2,5,5,120,2,0,0,2,67.43,135.21446380875,2.07400072923,698.17098287057
A-2157,oxacyclohexadecan-2-one,InChI=1S/C15H28O2/c16-15-13-11-9-7-5-3-1-2-4-6-8-10-12-14-17-15/h1-14H2,FKUPPRZPSYCDRS-UHFFFAOYSA-N,O=C1CCCCCCCCCCCCCCO1,-5.90378972280,0.72481686058,3,G4,240.38700,4.61450,70.98000,17,2,0,2,0,100,0,1,1,1,26.30,106.11767680540,2.11241104216,171.36084112384
A-2158,"2,2'-vinylenebis[5-methylbenzoxazole]","InChI=1S/C18H14N2O2/c1-11-3-5-15-13(9-11)19-17(21-15)7-8-18-20-14-10-12(2)4-6-16(14)22-18/h3-10H,1-2H3/b8-7+",VKRZNAWSCAUDRQ-BQYQJAHWSA-N,Cc1ccc2oc(\C=C\c3oc4ccc(C)cc4n3)nc2c1,-6.00048194910,0.00000000000,1,G1,290.32200,4.75624,86.42000,22,4,0,4,2,108,4,0,0,4,52.06,126.64994630448,1.68269919622,926.45800983921
A-2162,aluminium(3+) ion tris(N-nitroso-N-oxidoaniline),InChI=1S/3C6H5N2O2.Al/c3*9-7-8(10)6-4-2-1-3-5-6;/h3*1-5H;/q3*-1;+3,PMSRCBOGDIMQAT-UHFFFAOYSA-N,[Al+3].[O-]N(N=O)c1ccccc1.[O-]N(N=O)c2ccccc2.[O-]N(N=O)c3ccccc3,-6.19464910890,0.00000000000,1,G1,438.33600,4.63580,120.00300,31,9,0,13,6,156,3,0,0,3,167.19,186.94968860970,0.00000042857,760.79968740297
A-2167,"N,N-diethyl-4-[(E)-2-phenyldiazen-1-yl]aniline","InChI=1S/C16H19N3/c1-3-19(4-2)16-12-10-15(11-13-16)18-17-14-8-6-5-7-9-14/h5-13H,3-4H2,1-2H3",SJJISKLXUJVZOA-UHFFFAOYSA-N,CCN(CC)c1ccc(cc1)N=Nc2ccccc2,-5.98211526750,0.00000000000,1,G1,253.34900,4.94820,80.62100,19,3,0,3,5,98,2,0,0,2,27.96,114.15487729784,2.08633907936,513.45012621252
A-2168,neodymium(3+) ion trifluoride,InChI=1S/3FH.Nd/h3*1H;/q;;;+3/p-3,XRADHEAKQRNYQQ-UHFFFAOYSA-K,[F-].[F-].[F-].[Nd+3],-5.89376823660,1.01281755297,4,G4,201.23400,-8.98800,0.00000,4,0,0,4,0,25,0,0,0,0,0.00,54.58397386994,0.00000000000,3.24511249784
A-2169,"2-ethyl-9,10-dihydroanthracene-9,10-dione","InChI=1S/C16H12O2/c1-2-10-7-8-13-14(9-10)16(18)12-6-4-3-5-11(12)15(13)17/h3-9H,2H2,1H3",SJEBAWHUJDUKQK-UHFFFAOYSA-N,CCc1ccc2C(=O)c3ccccc3C(=O)c2c1,-5.98424249690,0.00000000000,1,G1,236.27000,3.02440,69.12700,18,2,0,2,1,88,2,0,1,3,34.14,105.26547882971,2.26842912573,668.54722005660
A-2172,(4-methyl-4-phenylpent-1-en-2-yl)benzene,"InChI=1S/C18H20/c1-15(16-10-6-4-7-11-16)14-18(2,3)17-12-8-5-9-13-17/h4-13H,1,14H2,2-3H3",ZOKCNEIWFQCSCM-UHFFFAOYSA-N,CC(C)(CC(=C)c1ccccc1)c2ccccc2,-6.01184247040,0.00000000000,1,G1,236.35800,5.06770,79.56100,18,0,0,0,4,92,2,0,0,2,0.00,109.98854697976,2.16512453958,506.24927846142
A-2173,"{2-butyl-4-chloro-1-[(4-{2-[2-(triphenylmethyl)-2H-1,2,3,4-tetrazol-5-yl]phenyl}phenyl)methyl]-1H-imidazol-5-yl}methanol","InChI=1S/C41H37ClN6O/c1-2-3-23-38-43-39(42)37(29-49)47(38)28-30-24-26-31(27-25-30)35-21-13-14-22-36(35)40-44-46-48(45-40)41(32-15-7-4-8-16-32,33-17-9-5-10-18-33)34-19-11-6-12-20-34/h4-22,24-27,49H,2-3,23,28-29H2,1H3",QQPGGBNMTNDKEY-UHFFFAOYSA-N,CCCCc1nc(Cl)c(CO)n1Cc2ccc(cc2)c3ccccc3c4nnn(n4)C(c5ccccc5)(c6ccccc6)c7ccccc7,-6.46125117170,0.00000000000,1,G1,665.24100,8.58040,194.16880,49,7,1,8,12,244,7,0,0,7,81.65,291.04827957995,1.27612294062,2030.00479996434
A-2174,disodium oxotitaniumbis(olate),InChI=1S/2Na.3O.Ti/q2*+1;3*-2;+4,LJUBBLNHYXJKSN-UHFFFAOYSA-N,[O--].[O--].[O--].[Na+].[Na+].[Ti+4],-5.80545799540,0.00000000000,1,G1,141.84400,-6.35090,2.05950,6,0,0,6,0,24,0,0,0,0,85.50,95.64367090509,0.00000000000,8.75488750216
A-2175,(2R)-2-ethylhexyl (2E)-3-(4-methoxyphenyl)prop-2-enoate (2S)-2-ethylhexyl (2E)-3-(4-methoxyphenyl)prop-2-enoate,"InChI=1S/2C18H26O3/c2*1-4-6-7-15(5-2)14-21-18(19)13-10-16-8-11-17(20-3)12-9-16/h2*8-13,15H,4-7,14H2,1-3H3/b2*13-10+/t2*15-/m10/s1",AKRXZXNNMQZCSA-IVGCKTBMSA-N,CCCC[C@H](CC)COC(=O)/C=C/c1ccc(OC)cc1.CCCC[C@@H](CC)COC(=O)/C=C/c2ccc(OC)cc2,-6.42160841340,0.36481941205,2,G3,580.80600,8.93600,172.58600,42,6,0,6,18,232,2,0,0,2,71.06,253.65095827836,0.00000042000,954.06318044510
A-2176,"1,4-dimethyl 2-[(E)-2-{2-oxo-1-[(2-oxo-2,3-dihydro-1H-1,3-benzodiazol-5-yl)carbamoyl]propyl}diazen-1-yl]benzene-1,4-dicarboxylate","InChI=1S/C21H19N5O7/c1-10(27)17(18(28)22-12-5-7-14-16(9-12)24-21(31)23-14)26-25-15-8-11(19(29)32-2)4-6-13(15)20(30)33-3/h4-9,17H,1-3H3,(H,22,28)(H2,23,24,31)",KEZJTZQNDCLRDB-UHFFFAOYSA-N,COC(=O)c1ccc(C(=O)OC)c(c1)N=NC(C(C)=O)C(=O)Nc2ccc3NC(=O)Nc3c2,-6.31406937130,0.00000000000,1,G1,453.41100,2.10940,115.65510,33,9,3,12,7,170,3,0,0,3,172.14,185.54984816176,1.89833174601,1338.26720824925
A-2177,2-decyloxirane,"InChI=1S/C12H24O/c1-2-3-4-5-6-7-8-9-10-12-11-13-12/h12H,2-11H2,1H3",MPGABYXKKCLIRW-UHFFFAOYSA-N,CCCCCCCCCCC1CO1,-5.92315684950,0.00000000000,1,G1,184.32300,3.91600,56.96700,13,1,0,1,9,78,0,1,1,1,12.53,82.86132836217,1.63441243929,107.69210414479
A-2178,2-dodecyloxirane,"InChI=1S/C14H28O/c1-2-3-4-5-6-7-8-9-10-11-12-14-13-15-14/h14H,2-13H2,1H3",IOHJQSFEAYDZGF-UHFFFAOYSA-N,CCCCCCCCCCCCC1CO1,-5.98468480090,0.32172633825,2,G3,212.37700,4.69620,66.20100,15,1,0,1,11,90,0,1,1,1,12.53,95.59121259096,1.61825705320,129.30039002532
A-2179,"Decahydrospiro[furan-2(3H),5'-[4,7]methano[5h]indene]","InChI=1S/C13H20O/c1-3-10-9-7-12(11(10)4-1)13(8-9)5-2-6-14-13/h9-12H,1-8H2",JDJZAKLOMAHING-UHFFFAOYSA-N,C1COC2(C1)CC3CC2C4CCCC34,-5.94156112020,0.00000000000,1,G1,192.30200,2.99170,54.96200,14,1,0,1,0,78,0,4,4,4,9.23,86.20877701598,1.68783334659,253.96117768980
A-2180,ethenyl[(ethenyldimethylsilyl)oxy]dimethylsilane,"InChI=1S/C8H18OSi2/c1-7-10(3,4)9-11(5,6)8-2/h7-8H,1-2H2,3-6H3",BITPLIXHRASDQB-UHFFFAOYSA-N,C[Si](C)(O[Si](C)(C)C=C)C=C,-5.95448255220,0.00000000000,1,G1,186.40300,2.86360,56.44300,11,1,0,3,4,64,0,0,0,0,9.23,72.03681654231,4.23334358148,143.47499331587
A-2181,"2-[1-(2-hydroxy-3,5-dimethylphenyl)-2-methylpropyl]-4,6-dimethylphenol","InChI=1S/C20H26O2/c1-11(2)18(16-9-12(3)7-14(5)19(16)21)17-10-13(4)8-15(6)20(17)22/h7-11,18,21-22H,1-6H3",SZAQZZKNQILGPU-UHFFFAOYSA-N,CC(C)C(c1cc(C)cc(C)c1O)c2cc(C)cc(C)c2O,-6.16734061990,0.00000000000,1,G1,298.42600,5.11938,91.84260,22,2,2,2,3,118,2,0,0,2,40.46,132.99650174513,2.72511834525,641.83881155950
A-2183,"1,3-dimethyl 5-[(E)-2-{2-oxo-1-[(2-oxo-2,3-dihydro-1H-1,3-benzodiazol-5-yl)carbamoyl]propyl}diazen-1-yl]benzene-1,3-dicarboxylate","InChI=1S/C21H19N5O7/c1-10(27)17(18(28)22-13-4-5-15-16(9-13)24-21(31)23-15)26-25-14-7-11(19(29)32-2)6-12(8-14)20(30)33-3/h4-9,17H,1-3H3,(H,22,28)(H2,23,24,31)",IHRACTUONPFMSI-UHFFFAOYSA-N,COC(=O)c1cc(cc(c1)C(=O)OC)N=NC(C(C)=O)C(=O)Nc2ccc3NC(=O)Nc3c2,-6.37773845120,0.00000000000,1,G1,453.41100,2.10940,115.65510,33,9,3,12,7,170,3,0,0,3,172.14,185.54984816176,1.86969618004,1304.01720824925