ID,Name,InChI,InChIKey,SMILES,Solubility,SD,Ocurrences,Group,MolWt,MolLogP,MolMR,HeavyAtomCount,NumHAcceptors,NumHDonors,NumHeteroatoms,NumRotatableBonds,NumValenceElectrons,NumAromaticRings,NumSaturatedRings,NumAliphaticRings,RingCount,TPSA,LabuteASA,BalabanJ,BertzCT
A-3907,1-nitroguanidine,"InChI=1S/CH4N4O2/c2-1(3)4-5(6)7/h(H4,2,3,4)",IDCPFAYURAQKDZ-UHFFFAOYSA-N,NC(N)=N[N+]([O-])=O,-1.48584246440,0.08396343460,4,G5,104.06900,-1.54850,22.80420,7,2,2,6,1,40,0,0,0,0,107.54,38.93746665045,3.67922803196,102.25742227202
A-3908,2-(trifluoromethyl)aniline,"InChI=1S/C7H6F3N/c8-7(9,10)5-3-1-2-4-6(5)11/h1-4H,11H2",VBLXCTYLWZJBKA-UHFFFAOYSA-N,Nc1ccccc1C(F)(F)F,-1.67568670870,0.00000000000,1,G1,161.12600,2.28760,35.85640,11,1,1,4,0,60,1,0,0,1,26.02,61.63284213968,3.14110919053,254.10775327613
A-3909,1-[4-(4-hydroxyphenyl)piperazin-1-yl]ethan-1-one,"InChI=1S/C12H16N2O2/c1-10(15)13-6-8-14(9-7-13)11-2-4-12(16)5-3-11/h2-5,16H,6-9H2,1H3",AGVNLFCRZULMKK-UHFFFAOYSA-N,CC(=O)N1CCN(CC1)c2ccc(O)cc2,-1.81791448800,0.00000000000,1,G1,220.27200,1.06070,62.57380,16,3,1,4,1,86,1,1,1,2,43.78,95.09064784499,1.98575018665,367.11007965997
A-3910,"4-(oxiran-2-ylmethoxy)-N,N-bis(oxiran-2-ylmethyl)aniline","InChI=1S/C15H19NO4/c1-3-12(17-9-15-10-20-15)4-2-11(1)16(5-13-7-18-13)6-14-8-19-14/h1-4,13-15H,5-10H2",AHIPJALLQVEEQF-UHFFFAOYSA-N,C1OC1COc2ccc(cc2)N(CC3CO3)CC4CO4,-1.91923472470,0.00000000000,1,G1,277.32000,1.06820,73.37000,20,5,0,5,8,108,1,3,3,4,50.06,117.91240327671,1.37600254389,437.44624709853
A-3911,1-aminoguanidine; carbonic acid,"InChI=1S/CH6N4.CH2O3/c2-1(3)5-4;2-1(3)4/h4H2,(H4,2,3,5);(H2,2,3,4)",OTXHZHQQWQTQMW-UHFFFAOYSA-N,NN=C(N)N.OC(O)=O,-1.61537928490,0.11144138675,3,G5,136.11100,-1.64410,30.65080,9,3,5,7,0,54,0,0,0,0,147.95,50.74514449732,0.00000000000,102.38037532843
A-3914,methyl(naphthalen-1-ylmethyl)amine,"InChI=1S/C12H13N/c1-13-9-11-7-4-6-10-5-2-3-8-12(10)11/h2-8,13H,9H2,1H3",MQRIUFVBEVFILS-UHFFFAOYSA-N,CNCc1cccc2ccccc12,-1.71509888770,0.00000000000,1,G1,171.24300,2.55920,56.71170,13,1,1,1,2,66,2,0,0,2,12.03,78.39281406363,2.61387119045,401.28971348227
A-3915,N-(2-methoxyphenyl)-3-oxobutanamide,"InChI=1S/C11H13NO3/c1-8(13)7-11(14)12-9-5-3-4-6-10(9)15-2/h3-6H,7H2,1-2H3,(H,12,14)",KYYRTDXOHQYZPO-UHFFFAOYSA-N,COc1ccccc1NC(=O)CC(C)=O,-1.80590552110,0.00000000000,1,G1,207.22900,1.61280,56.92170,15,3,1,4,4,80,1,0,0,1,55.40,88.24256530468,2.71179361214,373.85071282201
A-3919,2-(propan-2-yloxy)propane,"InChI=1S/C6H14O/c1-5(2)7-6(3)4/h5-6H,1-4H3",ZAFNJMIOTHYJRJ-UHFFFAOYSA-N,CC(C)OC(C)C,-1.51659275830,0.27371132448,4,G5,102.17700,1.81980,31.35700,7,1,0,1,2,44,0,0,0,0,9.23,45.67750682932,2.95322317456,33.44467835888
A-3921,2-bromopropane,"InChI=1S/C3H7Br/c1-3(2)4/h3H,1-2H3",NAMYKGVDVNBCFQ-UHFFFAOYSA-N,CC(C)Br,-1.59851870100,0.01848060761,3,G5,122.99300,1.78970,24.06300,4,0,0,1,0,26,0,0,0,0,0.00,35.33668286226,2.32379000772,8.00000000000
A-3922,4-methylbenzene-1-sulfonamide,"InChI=1S/C7H9NO2S/c1-6-2-4-7(5-3-6)11(8,9)10/h2-5H,1H3,(H2,8,9,10)",LMYRWZFENFIFIT-UHFFFAOYSA-N,Cc1ccc(cc1)[S](N)(=O)=O,-1.74219533530,0.00000000000,1,G1,171.22100,0.64242,42.55220,11,2,1,4,1,60,1,0,0,1,60.16,65.89701182332,3.20151593107,339.20825254566
A-3924,(ethylsulfanyl)ethane,"InChI=1S/C4H10S/c1-3-5-4-2/h3-4H2,1-2H3",LJSQFQKUNVCTIA-UHFFFAOYSA-N,CCSCC,-1.46802482680,0.06401241340,2,G3,90.19100,1.75940,28.67300,5,1,0,1,2,32,0,0,0,0,0.00,37.95718739638,2.19060968716,11.11941547876
A-3926,6-methylhept-5-en-2-one,"InChI=1S/C8H14O/c1-7(2)5-4-6-8(3)9/h5H,4,6H2,1-3H3",UHEPJGULSIKKTP-UHFFFAOYSA-N,CC(C)=CCCC(C)=O,-1.62104897060,0.00000000000,1,G1,126.19900,2.32180,39.34600,9,1,0,1,3,52,0,0,0,0,17.07,56.76576489647,3.30504299370,118.52932501298
A-3929,1-[2-(2-butoxyethoxy)ethoxy]butane,"InChI=1S/C12H26O3/c1-3-5-7-13-9-11-15-12-10-14-8-6-4-2/h3-12H2,1-2H3",KZVBBTZJMSWGTK-UHFFFAOYSA-N,CCCCOCCOCCOCCCC,-1.86200608400,0.18094227434,3,G5,218.33700,2.63640,62.27300,15,3,0,3,12,92,0,0,0,0,27.69,94.09424997471,2.80792573888,95.04035409498
A-3931,2-isopropenyl-5-methylcyclohexanol,"InChI=1S/C10H18O/c1-7(2)9-5-4-8(3)6-10(9)11/h8-11H,1,4-6H2,2-3H3",ZYTMANIQRDEHIO-UHFFFAOYSA-N,CC1CCC(C(O)C1)C(C)=C,-1.71111236450,0.00000000000,1,G1,154.25300,2.35960,47.32580,11,1,1,1,1,64,0,1,1,1,20.23,69.12252962388,2.50275569568,150.95176690806
A-3932,2-methoxy-5-methylaniline,"InChI=1S/C8H11NO/c1-6-3-4-8(10-2)7(9)5-6/h3-5H,9H2,1-2H3",WXWCDTXEKCVRRO-UHFFFAOYSA-N,COc1ccc(C)cc1N,-1.66017587550,0.00000000000,1,G1,137.18200,1.58582,42.14340,10,2,1,2,1,54,1,0,0,1,35.25,60.61472327481,3.06998271500,232.69924244623
A-3933,"2-phenyl-4,5-dihydro-1H-imidazole; benzene-1,2,4,5-tetracarboxylic acid","InChI=1S/C10H6O8.C9H10N2/c11-7(12)3-1-4(8(13)14)6(10(17)18)2-5(3)9(15)16;1-2-4-8(5-3-1)9-10-6-7-11-9/h1-2H,(H,11,12)(H,13,14)(H,15,16)(H,17,18);1-5H,6-7H2,(H,10,11)",TZBVXASHYYFGHZ-UHFFFAOYSA-N,OC(=O)c1cc(C(O)=O)c(cc1C(O)=O)C(O)=O.C2CN=C(N2)c3ccccc3,-2.12531098450,0.00000000000,1,G1,400.34300,1.51580,100.12790,29,6,5,10,5,150,2,0,1,3,173.59,163.31130020476,0.00000023030,900.51877143993
A-3934,4-chloroaniline,"InChI=1S/C6H6ClN/c7-5-1-3-6(8)4-2-5/h1-4H,8H2",QSNSCYSYFYORTR-UHFFFAOYSA-N,Nc1ccc(Cl)cc1,-1.62864091800,0.06597233096,4,G5,127.57400,1.92220,35.86440,8,1,1,2,0,42,1,0,0,1,26.02,53.07456004339,3.03245553203,147.38833891467
A-3935,5-methylheptan-3-one,"InChI=1S/C8H16O/c1-4-7(3)6-8(9)5-2/h7H,4-6H2,1-3H3",PSBKJPTZCVYXSD-UHFFFAOYSA-N,CCC(C)CC(=O)CC,-1.63081758200,0.00000000000,1,G1,128.21500,2.40170,39.37000,9,1,0,1,4,54,0,0,0,0,17.07,57.45536792865,3.34300024584,86.56842503029
A-3937,aluminum tris(4-oxopent-2-en-2-olate),"InChI=1S/3C5H8O2.Al/c3*1-4(6)3-5(2)7;/h3*3,6H,1-2H3;/q;;;+3/p-3",KILURZWTCGSYRE-UHFFFAOYSA-K,[Al+3].CC([O-])=CC(C)=O.CC([O-])=CC(C)=O.CC([O-])=CC(C)=O,-2.03383774640,0.00000000000,1,G1,324.30900,-0.86230,79.06800,22,6,0,7,3,120,0,0,0,0,120.39,141.53207438859,-0.00000010800,368.38060015469
A-3939,chlorodifluoromethane,InChI=1S/CHClF2/c2-1(3)4/h1H,VOPWNXZWBYDODV-UHFFFAOYSA-N,FC(F)Cl,-1.45973415920,0.01733292040,2,G3,86.46800,1.44780,11.85700,4,0,0,3,0,26,0,0,0,0,0.00,27.37358806056,2.32379000772,10.75488750216
A-3941,"2-[[4,5-dihydro-3-methyl-5-oxo-1-[4-[[2-(sulphooxy)ethyl]sulphonyl]phenyl]-1H-pyrazol-4-yl]azo]naphthalene-1,5-disulphonic acid, potassium sodium salt","InChI=1S/C22H22N4O13S4.K.Na/c1-13-20(22(27)26(25-13)14-5-7-15(8-6-14)40(28,29)12-11-39-43(36,37)38)24-23-18-10-9-16-17(21(18)42(33,34)35)3-2-4-19(16)41(30,31)32;;/h2-10,20,22,27H,11-12H2,1H3,(H,30,31,32)(H,33,34,35)(H,36,37,38);;/q;2*+1/p-2",GARUHJAOVJVADA-UHFFFAOYSA-L,[Na+].[K+].CC1=NN(C(O)C1N=Nc2ccc3c(cccc3[S]([O-])(=O)=O)c2[S](O)(=O)=O)c4ccc(cc4)[S](=O)(=O)CCO[S]([O-])(=O)=O,-0.39283982650,0.00000000000,1,G1,738.77300,-5.08410,145.76860,45,16,2,23,10,232,3,0,1,4,272.69,322.39010699868,0.00000352666,2093.78037744112
A-3943,"but-2-yne-1,4-diol","InChI=1S/C4H6O2/c5-3-1-2-4-6/h5-6H,3-4H2",DLDJFQGPPSQZKI-UHFFFAOYSA-N,OCC#CCO,1.53633900320,0.44938833812,3,G5,86.09000,-1.02560,21.94760,6,2,2,2,0,34,0,0,0,0,40.46,36.42177026727,2.89866761803,59.35260810786
A-3944,"trisodium 8-{[(2E)-4-chloro-6-[ethyl(phenyl)amino]-1,2-dihydro-1,3,5-triazin-2-ylidene]amino}-2-[(E)-2-(1-sulfonaphthalen-2-yl)diazen-1-yl]-3,6-disulfonatonaphthalen-1-olate","InChI=1S/C31H24ClN7O10S3.3Na/c1-2-39(19-9-4-3-5-10-19)31-35-29(32)34-30(36-31)33-23-16-20(50(41,42)43)14-18-15-24(51(44,45)46)26(27(40)25(18)23)38-37-22-13-12-17-8-6-7-11-21(17)28(22)52(47,48)49;;;/h3-16,37H,2H2,1H3,(H,41,42,43)(H,44,45,46)(H,47,48,49)(H,33,34,35,36);;;/q;3*+1/p-3/b38-26+;;;",YTFISNAZHFSCHA-AWMFZBAVSA-K,[Na+].[Na+].[Na+].CCN(c1ccccc1)c2nc(Cl)nc(Nc3cc(cc4C=C(\C(=N/Nc5ccc6ccccc6c5[S]([O-])(=O)=O)C(=O)c34)[S]([O-])(=O)=O)[S]([O-])(=O)=O)n2,-0.45923554930,0.00000000000,1,G1,852.17200,-5.04950,186.62050,55,17,2,24,10,268,5,0,1,6,267.00,385.75342448163,0.00000270750,2709.69095138392
A-3949,"sodium 3-[2-(1,5-dioxonaphthalen-2-yl)hydrazinyl]-4-hydroxybenzenesulfonate","InChI=1S/C16H12N2O6S.Na/c19-14-3-1-2-11-10(14)5-6-12(16(11)21)17-18-13-8-9(25(22,23)24)4-7-15(13)20;/h1-8,17-18,20H,(H,22,23,24);/q;+1/p-1",GJJYQFJLFUEXMR-UHFFFAOYSA-M,[Na+].Oc1ccc(cc1NNC2=CC=C3C(=O)C=CC=C3C2=O)[S]([O-])(=O)=O,-0.90119600350,0.00000000000,1,G1,382.32900,-2.32490,86.23140,26,8,3,10,4,128,1,0,2,3,135.63,170.53992380015,0.00000243000,1021.17560784135
A-3950,"N,N-bis(carboxymethyl)-L-glutamic acid","InChI=1S/C9H13NO8/c11-6(12)2-1-5(9(17)18)10(3-7(13)14)4-8(15)16/h5H,1-4H2,(H,11,12)(H,13,14)(H,15,16)(H,17,18)",VCVKIIDXVWEWSZ-UHFFFAOYSA-N,OC(=O)CCC(N(CC(O)=O)CC(O)=O)C(O)=O,0.04360380390,0.07916051700,2,G3,263.20200,-1.22440,55.13820,18,5,4,9,9,102,0,0,0,0,152.44,101.24164502216,4.82857374253,336.47679821800
A-3954,isopropenyl acetate,"InChI=1S/C5H8O2/c1-4(2)7-5(3)6/h1H2,2-3H3",HETCEOQFVDFGSY-UHFFFAOYSA-N,CC(=C)OC(C)=O,-0.52775137820,0.00000000000,1,G1,100.11700,1.08310,26.58000,7,2,0,2,1,40,0,0,0,0,26.30,42.78448378278,3.31801959038,82.25327665163
A-3955,"1,2,3,6-tetrahydrophthalic anhydride","InChI=1S/C8H8O3/c9-7-5-3-1-2-4-6(5)8(10)11-7/h1-2,5-6H,3-4H2",KMOUUZVZFBCRAM-UHFFFAOYSA-N,O=C1OC(=O)C2CC=CCC12,-0.71392177190,0.00000000000,1,G1,152.14900,0.65220,36.45300,11,3,0,3,0,58,0,1,2,2,43.37,64.02916991896,2.27508905612,217.72172564618
A-3956,"3,5-dimethyl-1H-pyrazole","InChI=1S/C5H8N2/c1-4-3-5(2)7-6-4/h3H,1-2H3,(H,6,7)",SDXAWLJRERMRKF-UHFFFAOYSA-N,Cc1[nH]nc(C)c1,-0.52047449760,0.00000000000,1,G1,96.13300,1.02654,28.06170,7,1,1,2,0,38,1,0,0,1,28.68,42.55854931866,3.04200276741,138.36869300356
A-3961,dipotassium 2-dodecanamidoacetate 2-tetradecanamidoacetate,"InChI=1S/C16H31NO3.C14H27NO3.2K/c1-2-3-4-5-6-7-8-9-10-11-12-13-15(18)17-14-16(19)20;1-2-3-4-5-6-7-8-9-10-11-13(16)15-12-14(17)18;;/h2-14H2,1H3,(H,17,18)(H,19,20);2-12H2,1H3,(H,15,16)(H,17,18);;/q;;2*+1/p-2",AFUMULMCCJZCMZ-UHFFFAOYSA-L,[K+].[K+].CCCCCCCCCCCCCC(=O)NCC([O-])=O.CCCCCCCCCCCC(=O)NCC([O-])=O,-0.34297170000,0.00000000000,1,G1,618.98200,-1.66500,148.95540,40,6,2,10,26,224,0,0,0,0,138.46,329.50781316137,-0.00000031009,594.54624990038
A-3964,"(8R,9S,10R,14S)-13-ethyl-1,2,6,7,8,9,10,11,12,14,15,16-dodecahydrocyclopenta[a]phenanthrene-3,17-dione","InChI=1S/C19H26O2/c1-2-19-10-9-15-14-6-4-13(20)11-12(14)3-5-16(15)17(19)7-8-18(19)21/h11,14-17H,2-10H2,1H3/t14-,15+,16+,17-,19?/m0/s1",SBLHOJQRZNGHLQ-YLVOMZDISA-N,CCC12CC[C@H]3[C@@H](CCC4=CC(=O)CC[C@H]34)[C@@H]1CCC2=O,-3.73271988930,0.00000000000,1,G1,286.41500,4.08740,81.71700,21,2,0,2,1,114,0,3,4,4,34.14,126.91832564075,1.65012785271,517.65939518062
A-3965,2-amino-3-(phosphonooxy)propanoic acid,"InChI=1S/C3H8NO6P/c4-2(3(5)6)1-10-11(7,8)9/h2H,1,4H2,(H,5,6)(H2,7,8,9)/t2-/m0/s1",BZQFBWGGLXLEPQ-REOHCLBHSA-N,N[C@@H](CO[P](O)(O)=O)C(O)=O,-0.81494087230,0.00000000000,1,G1,185.07200,-1.49240,33.60730,11,4,4,8,4,66,0,0,0,0,130.08,62.01640521425,3.72098456382,186.26641705523
A-3967,"Benzenesulfonic acid, mono-C11-13-branched alkyl derivs., sodium salts","InChI=1S/C18H30O3S.Na/c1-3-5-9-16(4-2)10-7-6-8-11-17-12-14-18(15-13-17)22(19,20)21;/h12-16H,3-11H2,1-2H3,(H,19,20,21);/q;+1/p-1",HLZPFMSGWIVXAK-UHFFFAOYSA-M,[Na+].CCCCC(CC)CCCCCc1ccc(cc1)[S]([O-])(=O)=O,-0.09690565120,0.00000000000,1,G1,348.48400,1.91400,89.88320,23,3,0,5,11,126,1,0,0,1,57.20,163.85274412501,0.00000483999,511.57316490135
A-3968,"hexasodium 2-({4-[bis(2-hydroxyethyl)amino]-6-({4-[(E)-2-[4-({4-[bis(2-hydroxyethyl)amino]-6-[(2,5-disulfonatophenyl)amino]-1,3,5-triazin-2-yl}amino)-2-sulfonatophenyl]ethenyl]-3-sulfonatophenyl}amino)-1,3,5-triazin-2-yl}amino)benzene-1,4-disulfonate","InChI=1S/C40H44N12O22S6.6Na/c53-15-11-51(12-16-54)39-47-35(45-37(49-39)43-29-21-27(75(57,58)59)7-9-31(29)77(63,64)65)41-25-5-3-23(33(19-25)79(69,70)71)1-2-24-4-6-26(20-34(24)80(72,73)74)42-36-46-38(50-40(48-36)52(13-17-55)14-18-56)44-30-22-28(76(60,61)62)8-10-32(30)78(66,67)68;;;;;;/h1-10,19-22,53-56H,11-18H2,(H,57,58,59)(H,60,61,62)(H,63,64,65)(H,66,67,68)(H,69,70,71)(H,72,73,74)(H2,41,43,45,47,49)(H2,42,44,46,48,50);;;;;;/q;6*+1/p-6/b2-1+;;;;;;",ZECOZQHKQDLCBT-IRTUOLCXSA-H,[Na+].[Na+].[Na+].[Na+].[Na+].[Na+].OCCN(CCO)c1nc(Nc2ccc(\C=C\c3ccc(Nc4nc(Nc5cc(ccc5[S]([O-])(=O)=O)[S]([O-])(=O)=O)nc(n4)N(CCO)CCO)cc3[S]([O-])(=O)=O)c(c2)[S]([O-])(=O)=O)nc(Nc6cc(ccc6[S]([O-])(=O)=O)[S]([O-])(=O)=O)n1,-0.69240560040,0.00000000000,1,G1,1369.14800,-19.76800,268.02920,86,34,8,46,26,432,6,0,0,6,556.06,624.14284502742,0.00001204165,3827.92506782320
A-3969,dicaesium(1+) ion carbonate,"InChI=1S/CH2O3.2Cs/c2-1(3)4;;/h(H2,2,3,4);;/q;2*+1/p-2",FJDQFPXHSGXQBY-UHFFFAOYSA-L,[Cs+].[Cs+].[O-]C([O-])=O,0.93006875520,0.00000000000,1,G1,325.81800,-8.43900,5.39600,6,3,0,5,0,24,0,0,0,0,63.19,153.09881892226,-0.00000004500,31.77443751082
A-3975,pivalic acid,"InChI=1S/C5H10O2/c1-5(2,3)4(6)7/h1-3H3,(H,6,7)",IUGYQRQAERSCNH-UHFFFAOYSA-N,CC(C)(C)C(O)=O,-0.56356188560,0.05456905720,2,G3,102.13300,1.11710,27.09080,7,1,1,2,0,42,0,0,0,0,37.30,43.15477533766,3.79111841709,78.57116899295
A-3976,"1-(2-hydroxyethyl)-2,2,6,6-tetramethylpiperidin-4-ol","InChI=1S/C11H23NO2/c1-10(2)7-9(14)8-11(3,4)12(10)5-6-13/h9,13-14H,5-8H2,1-4H3",STEYNUVPFMIUOY-UHFFFAOYSA-N,CC1(C)CC(O)CC(C)(C)N1CCO,-0.85982055290,0.00000000000,1,G1,201.31000,0.99260,57.19060,14,3,2,3,2,84,0,1,1,1,43.70,86.73114219286,2.84752143739,183.46421232384
A-3977,diethyl(prop-2-yn-1-yl)amine,"InChI=1S/C7H13N/c1-4-7-8(5-2)6-3/h1H,5-7H2,2-3H3",JZJXKEWVUBVOEH-UHFFFAOYSA-N,CCN(CC)CC#C,-0.60201312250,0.00000000000,1,G1,111.18800,0.96140,36.62100,8,1,0,1,3,46,0,0,0,0,3.24,51.68796277627,3.24837127670,76.87784055858
A-3978,cobalt(2+) hydrogen citrate,"InChI=1S/C6H8O7.Co/c7-3(8)1-6(13,5(11)12)2-4(9)10;/h13H,1-2H2,(H,7,8)(H,9,10)(H,11,12);/q;+2/p-2",FDTVUHQHHXTXLW-UHFFFAOYSA-L,[Co++].OC(=O)CC(O)(CC([O-])=O)C([O-])=O,-0.95457397200,0.00000000000,1,G1,249.04000,-3.92040,31.83360,14,6,2,8,5,81,0,0,0,0,137.79,88.54549639019,0.00000000000,232.56457479341
A-3979,Cobaltous citrate,"InChI=1S/2C6H8O7.3Co/c2*7-3(8)1-6(13,5(11)12)2-4(9)10;;;/h2*13H,1-2H2,(H,7,8)(H,9,10)(H,11,12);;;/q;;3*+2/p-6",IEXXNGVQCLMTKU-UHFFFAOYSA-H,[Co++].[Co++].[Co++].OC(CC([O-])=O)(CC([O-])=O)C([O-])=O.OC(CC([O-])=O)(CC([O-])=O)C([O-])=O,-1.30259549990,0.00000000000,1,G1,554.99700,-10.51270,58.40960,29,14,2,17,10,169,0,0,0,0,281.24,192.04254850194,-0.00000012000,520.64977312575
A-3985,barium(2+) ion dichloride,InChI=1S/Ba.2ClH.2H2O/h;2*1H;2*1H2/q+2;;;;/p-2,PWHCIQQGOQTFAE-UHFFFAOYSA-L,O.O.[Cl-].[Cl-].[Ba++],0.04189281530,0.00557840105,2,G3,244.26400,-8.02220,12.98160,5,0,0,5,0,32,0,0,0,0,63.00,83.21231168015,0.00000000000,7.60964047444
A-3986,"2-bromo-2-nitropropane-1,3-diol","InChI=1S/C3H6BrNO4/c4-3(1-6,2-7)5(8)9/h6-7H,1-2H2",LVDKZNITIUWNER-UHFFFAOYSA-N,OCC(Br)(CO)[N+]([O-])=O,0.12713085680,0.02993127571,4,G5,199.98800,-0.66110,32.82400,9,4,2,6,3,54,0,0,0,0,83.60,59.57812608916,4.09034051580,112.38037532843
A-3987,copper(+1) cation sulfide,InChI=1S/2Cu.S/q2*+1;-2,AQMRBJNRFUQADD-UHFFFAOYSA-N,[SH--].[Cu+].[Cu+],-4.20457304110,0.00000000000,1,G1,160.16700,-0.27510,8.76000,3,0,0,3,0,29,0,0,0,0,0.00,47.75257275931,0.00000000000,2.75488750216
A-3988,2-methyl-1H-imidazole,"InChI=1S/C4H6N2/c1-4-5-2-3-6-4/h2-3H,1H3,(H,5,6)",LXBGSDVWAMZHDD-UHFFFAOYSA-N,Cc1[nH]ccn1,0.51213636650,0.00000000000,1,G1,82.10600,0.71812,23.32470,6,1,1,2,0,32,1,0,0,1,28.68,36.22515363585,3.04964832131,109.10850553449
A-3989,Sodium trimetaphosphate,"InChI=1S/3Na.H3O9P3/c;;;1-10(2)7-11(3,4)9-12(5,6)8-10/h;;;(H,1,2)(H,3,4)(H,5,6)/q3*+1;/p-3",UGTZMIPZNRIWHX-UHFFFAOYSA-K,[Na+].[Na+].[Na+].[O-][P]1(=O)O[P]([O-])(=O)O[P]([O-])(=O)O1,-0.06230946700,0.00000000000,1,G1,305.88300,-10.53300,26.07450,15,9,0,15,0,72,0,1,1,1,148.08,150.98084559657,-0.00000048000,265.19050827068
A-3991,oxoselane oxide,InChI=1S/O2Se/c1-3-2,JPJALAQPGMAKDF-UHFFFAOYSA-N,O=[Se]=O,1.36477450330,0.00000000000,1,G1,110.95800,-0.61840,7.12700,3,2,0,3,0,18,0,0,0,0,34.14,23.39474668115,3.26598632371,23.77443751082
A-3992,"1,3-dioxepane",InChI=1S/C5H10O2/c1-2-4-7-5-6-3-1/h1-5H2,CZLMRJZAHXYRIX-UHFFFAOYSA-N,C1CCOCOC1,0.41078965970,0.02858275310,2,G3,102.13300,0.77090,26.00500,7,2,0,2,0,42,0,1,1,1,18.46,43.42027879090,2.04166666667,25.69332843437
A-3994,"pentasodium 4-amino-6-[(E)-2-{5-[(4-amino-6-chloro-1,3,5-triazin-2-yl)amino]-2-sulfonatophenyl}diazen-1-yl]-3-[(E)-2-(2,5-disulfonatophenyl)diazen-1-yl]-5-hydroxynaphthalene-2,7-disulfonate","InChI=1S/C25H19ClN10O16S5.5Na/c26-23-30-24(28)32-25(31-23)29-10-1-3-14(54(41,42)43)12(7-10)33-36-21-17(57(50,51)52)6-9-5-16(56(47,48)49)20(19(27)18(9)22(21)37)35-34-13-8-11(53(38,39)40)2-4-15(13)55(44,45)46;;;;;/h1-8,33H,27H2,(H,38,39,40)(H,41,42,43)(H,44,45,46)(H,47,48,49)(H,50,51,52)(H3,28,29,30,31,32);;;;;/q;5*+1/p-5/b35-34?,36-21+;;;;;",RAZBZSZIUMDHTB-WZTFRFCZSA-I,[Na+].[Na+].[Na+].[Na+].[Na+].Nc1nc(Cl)nc(Nc2ccc(c(N\N=C/3C(=O)c4c(N)c(N=Nc5cc(ccc5[S]([O-])(=O)=O)[S]([O-])(=O)=O)c(cc4C=C3[S]([O-])(=O)=O)[S]([O-])(=O)=O)c2)[S]([O-])(=O)=O)n1,-0.59080058390,0.00000000000,1,G1,1021.17900,-14.96470,185.36170,62,26,4,37,11,302,4,0,1,5,454.92,465.79267255492,0.00000744199,3109.04228419701
A-3996,4-methylpent-3-en-2-one,"InChI=1S/C6H10O/c1-5(2)4-6(3)7/h4H,1-3H3",SHOJXDKTYKFBRD-UHFFFAOYSA-N,CC(C)=CC(C)=O,-0.56082623400,0.01491311700,2,G3,98.14500,1.54160,30.11200,7,1,0,1,1,40,0,0,0,0,17.07,44.03588066767,3.67922803196,96.74764726769
A-3997,"disodium 3-[(E)-2-(5-chloro-2-hydroxyphenyl)diazen-1-yl]-4,5-dihydroxynaphthalene-2,7-disulfonate","InChI=1S/C16H11ClN2O9S2.2Na/c17-8-1-2-11(20)10(5-8)18-19-15-13(30(26,27)28)4-7-3-9(29(23,24)25)6-12(21)14(7)16(15)22;;/h1-6,18,20-21H,(H,23,24,25)(H,26,27,28);;/q;2*+1/p-2/b19-15+;;",RAIRBURLMTXYPH-WTBAQZMLSA-L,[Na+].[Na+].Oc1ccc(Cl)cc1N\N=C/2C(=O)c3c(O)cc(cc3C=C2[S]([O-])(=O)=O)[S]([O-])(=O)=O,-1.28980865820,0.00000000000,1,G1,518.82000,-4.78620,102.24920,32,11,3,16,4,158,2,0,1,3,196.32,230.80547938396,0.00000256000,1374.11808499690
A-3998,C.i.Basic Violet 11,"InChI=1S/C30H35N2O3.ClH/c1-6-31(7-2)21-15-17-25-27(19-21)35-28-20-22(32(8-3)9-4)16-18-26(28)29(25)23-13-11-12-14-24(23)30(33)34-10-5;/h11-20H,6-10H2,1-5H3;1H/q+1;/p-1",UOKMUTMXUMSRKM-UHFFFAOYSA-M,[Cl-].CCOC(=O)c1ccccc1c2c3ccc(cc3[o+]c4cc(ccc24)N(CC)CC)N(CC)CC,-1.28018970620,0.00000000000,1,G1,507.07400,4.40720,146.64150,36,4,0,6,9,190,4,0,0,4,44.08,219.61883439391,0.00000360999,1277.11393651208
A-3999,4-chlorophenol,"InChI=1S/C6H5ClO/c7-5-1-3-6(8)4-2-5/h1-4,8H",WXNZTHHGJRFXKQ-UHFFFAOYSA-N,Oc1ccc(Cl)cc1,-0.68765971720,0.02277350285,5,G5,128.55800,2.04560,33.11680,8,1,1,2,0,42,1,0,0,1,20.23,52.52890309857,3.03245553203,147.38833891467
A-4000,methacrylonitrile,"InChI=1S/C4H5N/c1-4(2)3-5/h1H2,2H3",GYCMBHHDWRMZGG-UHFFFAOYSA-N,CC(=C)C#N,-0.40670851660,0.02428698289,4,G5,67.09100,1.08608,20.42700,5,1,0,1,0,26,0,0,0,0,23.79,31.53705402030,3.34880076364,76.13896548742
A-4001,2-methylphenol,"InChI=1S/C7H8O/c1-6-4-2-3-5-7(6)8/h2-5,8H,1H3",QWVGKYWNOKOFNN-UHFFFAOYSA-N,Cc1ccccc1O,-0.61901301730,0.00851666965,2,G3,108.14000,1.70062,32.84380,8,1,1,1,0,42,1,0,0,1,20.23,48.59057898609,3.13486151135,160.49662946460
A-4004,dilithium(1+) ion sulfate,"InChI=1S/2Li.H2O4S/c;;1-5(2,3)4/h;;(H2,1,2,3,4)/q2*+1;/p-2",INHCSSUBVCNVSK-UHFFFAOYSA-L,[Li+].[Li+].[O-][S]([O-])(=O)=O,0.39212428050,0.05895913325,3,G5,109.94500,-7.33000,10.47460,7,4,0,7,0,32,0,0,0,0,80.26,65.60131360359,-0.00000008000,92.85820232266
A-4006,dimethyl[2-[(2-methyl-1-oxoallyl)oxy]ethyl](3-sulphopropyl)ammonium hydroxide,"InChI=1S/C11H21NO5S/c1-10(2)11(13)17-8-7-12(3,4)6-5-9-18(14,15)16/h1,5-9H2,2-4H3",BCAIDFOKQCVACE-UHFFFAOYSA-N,CC(=C)C(=O)OCC[N+](C)(C)CCC[S]([O-])(=O)=O,0.96273996960,0.00000000000,1,G1,279.35800,0.11740,66.79660,18,5,0,7,8,106,0,0,0,0,83.50,108.57257763600,3.93728745980,399.65663481777
A-4009,"disodium 2-{4-[(2E)-2-cyano-3-{4-[methyl(2-sulfonatoethyl)amino]phenyl}prop-2-enamido]phenyl}-6-methyl-1,3-benzothiazole-7-sulfonate","InChI=1S/C27H24N4O7S3.2Na/c1-17-3-12-23-24(25(17)41(36,37)38)39-27(30-23)19-6-8-21(9-7-19)29-26(32)20(16-28)15-18-4-10-22(11-5-18)31(2)13-14-40(33,34)35;;/h3-12,15H,13-14H2,1-2H3,(H,29,32)(H,33,34,35)(H,36,37,38);;/q;2*+1/p-2/b20-15+;;",RXTSUBROMXGEJZ-ZAWKPCBGSA-L,[Na+].[Na+].CN(CC[S]([O-])(=O)=O)c1ccc(cc1)/C=C(C#N)/C(=O)Nc2ccc(cc2)c3sc4c(ccc(C)c4[S]([O-])(=O)=O)n3,-0.41594994200,0.00000000000,1,G1,656.67500,-2.28910,154.25210,43,11,1,16,9,212,4,0,0,4,183.42,297.26507009854,0.00000322666,1920.05112317708