ID,Name,InChI,InChIKey,SMILES,Solubility,SD,Ocurrences,Group,MolWt,MolLogP,MolMR,HeavyAtomCount,NumHAcceptors,NumHDonors,NumHeteroatoms,NumRotatableBonds,NumValenceElectrons,NumAromaticRings,NumSaturatedRings,NumAliphaticRings,RingCount,TPSA,LabuteASA,BalabanJ,BertzCT
A-4017,2-phenoxyethan-1-ol,"InChI=1S/C8H10O2/c9-6-7-10-8-4-2-1-3-5-8/h1-5,9H,6-7H2",QCDWFXQBSFUVSP-UHFFFAOYSA-N,OCCOc1ccccc1,-0.74246117600,0.01906440003,4,G5,138.16600,1.05770,39.02280,10,2,1,2,3,54,1,0,0,1,29.46,60.06906632999,2.42652234659,171.87228237004
A-4020,potassium hydrogen oxalate,"InChI=1S/C2H2O4.K/c3-1(4)2(5)6;/h(H,3,4)(H,5,6);/q;+1/p-1",JMTCDHVHZSGGJA-UHFFFAOYSA-M,[K+].OC(=O)C([O-])=O,-0.70969048010,0.00000000000,1,G1,128.12400,-5.17510,12.64280,7,3,1,5,0,34,0,0,0,0,77.43,81.93826954207,0.00000000000,75.69058447171
A-4023,"7-acetamido-4-hydroxy-3-[[4-[[2-(sulphooxy)ethyl]sulphonyl]phenyl]azo]naphthalene-2-sulphonic acid, sodium salt","InChI=1S/C20H19N3O11S3.2Na/c1-12(24)21-15-4-7-17-13(10-15)11-18(36(28,29)30)19(20(17)25)23-22-14-2-5-16(6-3-14)35(26,27)9-8-34-37(31,32)33;;/h2-7,10-11,22H,8-9H2,1H3,(H,21,24)(H,28,29,30)(H,31,32,33);;/q;2*+1/p-2/b23-19-;;",RVERFAMJEQKFQK-HHUIZHIGSA-L,[Na+].[Na+].CC(=O)Nc1ccc2C(=O)C(=N/Nc3ccc(cc3)[S](=O)(=O)CCO[S]([O-])(=O)=O)\C(=Cc2c1)[S]([O-])(=O)=O,-0.39639348950,0.00000000000,1,G1,617.54700,-5.54600,127.95210,39,13,2,19,9,198,2,0,1,3,228.33,268.03284588128,0.00000380250,1653.92433911049
A-4024,N'-acetylacetohydrazide,"InChI=1S/C4H8N2O2/c1-3(7)5-6-4(2)8/h1-2H3,(H,5,7)(H,6,8)",ZLHNYIHIHQEHJQ-UHFFFAOYSA-N,CC(=O)NNC(C)=O,0.32866817610,0.05578738755,2,G3,116.12000,-0.82640,27.63340,8,2,2,4,0,46,0,0,0,0,58.20,47.22698195856,3.18184586709,96.60593781761
A-4025,ethyl 2-cyclohexylpropanoate,"InChI=1S/C11H20O2/c1-3-13-11(12)9(2)10-7-5-4-6-8-10/h9-10H,3-8H2,1-2H3",PZUDDXJZNSJESK-UHFFFAOYSA-N,CCOC(=O)C(C)C1CCCCC1,-3.32745674940,0.00000000000,1,G1,184.27900,2.76590,52.37200,13,2,0,2,3,76,0,1,1,1,26.30,80.65790834782,2.35291943883,159.47321404168
A-4026,calcium bis((2S)-5-oxopyrrolidine-2-carboxylate),"InChI=1S/C5H7NO3.Ca/c7-4-2-1-3(6-4)5(8)9;/h3H,1-2H2,(H,6,7)(H,8,9);/q;+2/p-1",DPKBGUHEYKGWSC-UHFFFAOYSA-M,[Ca++].[O-]C(=O)C1CCC(=O)N1,0.16514784760,0.00000000000,1,G1,168.18500,-2.36590,31.92570,10,3,1,5,1,50,0,1,1,1,69.23,87.97609646300,0.00000081000,158.97205302420
A-4028,disodium oxybis[methylbenzenesulphonate],"InChI=1S/C14H14O7S2.2Na/c1-9-3-11(7-13(5-9)22(15,16)17)21-12-4-10(2)6-14(8-12)23(18,19)20;;/h3-8H,1-2H3,(H,15,16,17)(H,18,19,20);;/q;2*+1/p-2",UGVJAWDVDTXCQA-UHFFFAOYSA-L,[Na+].[Na+].Cc1cc(Oc2cc(C)cc(c2)[S]([O-])(=O)=O)cc(c1)[S]([O-])(=O)=O,-0.22079619540,0.00000000000,1,G1,402.35700,-4.08806,78.35840,25,7,0,11,4,124,2,0,0,2,123.63,190.41599804937,0.00000288000,891.16993745244
A-4029,2-(dimethylamino)ethyl acrylate,"InChI=1S/C7H13NO2/c1-4-7(9)10-6-5-8(2)3/h4H,1,5-6H2,2-3H3",DPBJAVGHACCNRL-UHFFFAOYSA-N,CN(C)CCOC(=O)C=C,0.22431068480,0.30989437915,2,G3,143.18600,0.27720,39.71000,10,3,0,3,4,58,0,0,0,0,29.54,61.27420168178,3.19486502463,120.77451436273
A-4030,"4-methyl-1,3-dioxolan-2-one","InChI=1S/C4H6O3/c1-3-2-6-4(5)7-3/h3H,2H2,1H3",RUOJZAUFBMNUDX-UHFFFAOYSA-N,CC1COC(=O)O1,0.37123229200,0.06858659655,2,G3,102.08900,0.54170,21.89500,7,3,0,3,0,40,0,1,1,1,35.53,41.21685877655,2.39706714269,88.93569696955
A-4031,(4-methoxyphenyl)methanol,"InChI=1S/C8H10O2/c1-10-8-4-2-7(6-9)3-5-8/h2-5,9H,6H2,1H3",MSHFRERJPWKJFX-UHFFFAOYSA-N,COc1ccc(CO)cc1,-0.74472714560,0.56179156175,3,G4,138.16600,1.18750,38.91680,10,2,1,2,2,54,1,0,0,1,29.46,60.06906632999,2.79725126297,167.91749419417
A-4032,aniline; formaldehyde,"InChI=1S/C6H7N.CH2O/c7-6-4-2-1-3-5-6;1-2/h1-5H,7H2;1H2",OUCPJZWNFRYRBI-UHFFFAOYSA-N,Nc1ccccc1.C=O,-2.00409221790,0.27783193562,3,G5,123.15500,1.08390,37.97540,9,2,1,2,0,48,1,0,0,1,43.09,54.30358918448,0.00000029143,150.26213946332
A-4034,1-ethynylcyclohexanol,"InChI=1S/C8H12O/c1-2-8(9)6-4-3-5-7-8/h1,9H,3-7H2",QYLFHLNFIHBCPR-UHFFFAOYSA-N,OC1(CCCCC1)C#C,-0.70489606290,0.00000000000,1,G1,124.18300,1.31480,36.86780,9,1,1,1,0,50,0,1,1,1,20.23,56.08147381913,2.48925668588,125.99328661117
A-4036,"1,3-dioxo-1,3-dihydro-2-benzofuran-5-carboxylic acid","InChI=1S/C9H4O5/c10-7(11)4-1-2-5-6(3-4)9(13)14-8(5)12/h1-3H,(H,10,11)",SRPWOOOHEPICQU-UHFFFAOYSA-N,OC(=O)c1ccc2C(=O)OC(=O)c2c1,-0.89619631460,0.09274088790,2,G3,192.12600,0.69540,43.14730,14,4,1,5,1,70,1,0,1,2,80.67,77.91274359099,2.60761901472,460.27016005413
A-4039,caesium(1+) ion nitrate,InChI=1S/Cs,TVFDJXOCXUVLDH-UHFFFAOYSA-N,[Cs],0.25576419800,0.00000000000,1,G1,132.90500,-0.38080,5.75400,1,0,0,1,0,1,0,0,0,0,0.00,66.67326690490,0.00000000000,0.00000000000
A-4040,"3-hydroxy-2,2-dimethylpropyl 3-hydroxy-2,2-dimethylpropanoate","InChI=1S/C10H20O4/c1-9(2,5-11)7-14-8(13)10(3,4)6-12/h11-12H,5-7H2,1-4H3",SZCWBURCISJFEZ-UHFFFAOYSA-N,CC(C)(CO)COC(=O)C(C)(C)CO,0.06820181650,0.02967633090,2,G3,204.26600,0.56660,52.69260,14,4,2,4,5,84,0,0,0,0,66.76,84.88726489134,4.09844200227,196.29867917997
A-4041,"copper(2+) ion tetrasodium 8-[(4-amino-6-chloro-1,3,5-triazin-2-yl)amino]-2-[(E)-2-(1-oxido-4,8-disulfonatonaphthalen-2-yl)diazen-1-yl]-3,6-disulfonatonaphthalen-1-olate","InChI=1S/C23H16ClN7O14S4.Cu.4Na/c24-21-27-22(25)29-23(28-21)26-11-6-9(46(34,35)36)4-8-5-15(49(43,44)45)18(20(33)16(8)11)31-30-12-7-14(48(40,41)42)10-2-1-3-13(47(37,38)39)17(10)19(12)32;;;;;/h1-7,32-33H,(H,34,35,36)(H,37,38,39)(H,40,41,42)(H,43,44,45)(H3,25,26,27,28,29);;;;;/q;+2;4*+1/p-6",BQWFGICULAHUSM-UHFFFAOYSA-H,[Na+].[Na+].[Na+].[Na+].[Cu++].Nc1nc(Cl)nc(Nc2cc(cc3cc(c(N=Nc4cc(c5cccc(c5c4[O-])[S]([O-])(=O)=O)[S]([O-])(=O)=O)c([O-])c23)[S]([O-])(=O)=O)[S]([O-])(=O)=O)n1,-0.59078144190,0.00000000000,1,G1,927.59500,-11.65030,155.34890,54,21,2,31,8,267,5,0,0,5,376.36,408.55989179755,0.00000561800,2752.34516422600
A-4043,"1,3-diaminourea","InChI=1S/CH6N4O/c2-4-1(6)5-3/h2-3H2,(H2,4,5,6)",XEVRDFDBXJMZFG-UHFFFAOYSA-N,NNC(=O)NN,0.41455855360,0.00000000000,1,G1,90.08600,-1.96700,20.04220,6,3,4,5,0,36,0,0,0,0,93.17,34.62055092958,2.98816088213,45.50977500433
A-4044,pentan-2-ol,"InChI=1S/C5H12O/c1-3-4-5(2)6/h5-6H,3-4H2,1-2H3",JYVLIDXNZAXMDK-UHFFFAOYSA-N,CCCC(C)O,-0.25414082450,0.02087958775,2,G3,88.15000,1.16730,26.58880,6,1,1,1,2,38,0,0,0,0,20.23,38.99325323761,2.62721484790,25.11941547876
A-4045,"sodium 1-(3,4-dihydro-6-methyl-2,4-dioxo-2H-pyran-3-ylidene)ethanolate","InChI=1S/C8H7O4.Na/c1-4-3-6(10)7(5(2)9)8(11)12-4;/h3H,1-2H3;/q-1;+1",YIOCQGHBBNGBND-UHFFFAOYSA-N,[Na+].CC(=O)[C-]1C(=O)OC(=CC1=O)C,0.08456133170,0.00000000000,1,G1,190.13000,-2.76608,41.58250,13,4,0,5,1,64,1,0,0,1,64.35,96.22901220954,0.00000144000,395.25554659834
A-4047,3-methylphenol,"InChI=1S/C7H8O/c1-6-3-2-4-7(8)5-6/h2-5,8H,1H3",RLSSMJSEOOYNOY-UHFFFAOYSA-N,Cc1cccc(O)c1,-0.66291850300,0.00752100250,2,G3,108.14000,1.70062,32.84380,8,1,1,1,0,42,1,0,0,1,20.23,48.59057898609,3.07766043797,164.24662946460
A-4049,methanethiol,"InChI=1S/CH4S/c1-2/h2H,1H3",LSDPWZHWYPCBBB-UHFFFAOYSA-N,CS,-0.31487943590,0.08991760010,2,G3,48.11000,0.54600,14.91000,2,1,1,1,0,14,0,0,0,0,0.00,19.89431769123,1.00000000000,2.00000000000
A-4052,2-propyloxirane,"InChI=1S/C5H10O/c1-2-3-5-4-6-5/h5H,2-4H2,1H3",SYURNNNQIFDVCA-UHFFFAOYSA-N,CCCC1CO1,-0.57344678000,0.00000000000,1,G1,86.13400,1.18530,24.64800,6,1,0,1,2,36,0,1,1,1,12.53,38.30673356139,1.87628589484,39.20310343870
A-4055,potassium difluorodihydroxyboranuide,"InChI=1S/BF2H2O2.K/c2-1(3,4)5;/h4-5H;/q-1;+1",VRMTUNITGONABS-UHFFFAOYSA-N,[K+].O[B-](O)(F)F,-0.72434711800,0.17892996642,4,G5,121.92000,-3.65040,12.40760,6,2,2,6,0,32,0,0,0,0,40.46,76.04297620220,0.00000000000,27.01955000865
A-4056,sodium 5-[[4-acetamido-2-(trifluoromethyl)phenyl]azo]-6-amino-4-hydroxynaphthalene-2-sulphonate,"InChI=1S/C19H15F3N4O5S.Na/c1-9(27)24-11-3-5-15(13(7-11)19(20,21)22)25-26-18-14(23)4-2-10-6-12(32(29,30)31)8-16(28)17(10)18;/h2-8,23,25-26H,1H3,(H,24,27)(H,29,30,31);/q;+1/p-1",OESZMLMGVFCVEX-UHFFFAOYSA-M,[Na+].CC(=O)Nc1ccc(NNC2=C3C(=O)C=C(C=C3C=CC2=N)[S]([O-])(=O)=O)c(c1)C(F)(F)F,-1.32881819750,0.00000000000,1,G1,490.39500,-0.63383,107.26900,33,8,4,14,5,168,1,0,2,3,151.28,207.57233578280,0.00000385333,1280.58276105512
A-4061,benzoate; diaminomethylideneazanium,"InChI=1S/C7H6O2.CH6N3/c8-7(9)6-4-2-1-3-5-6;2-1(3)4/h1-5H,(H,8,9);2-4H2/q;+1/p-1",KNBXROBXQPEXAM-UHFFFAOYSA-M,N[C+](N)N.[O-]C(=O)c1ccccc1,0.00501625560,0.00000000000,1,G1,181.19500,-1.64041,46.57770,13,5,3,5,1,70,1,0,0,1,118.19,76.14254644510,0.00000031000,246.07098126568
A-4063,"disodium bis[(oxoboranyl)oxy]bicyclo[5.5.1]hexaboroxane-3,5-bis(olate)",InChI=1S/8BO3.2Na.4H2O/c8*2-1(3)4;;;;;;/h;;;;;;;;;;4*1H2/q8*-3;2*+1;;;;,RHSGYAYYVYMXIF-UHFFFAOYSA-N,O.O.O.O.[Na+].[Na+].[O-]B([O-])[O-].[O-]B([O-])[O-].[O-]B([O-])[O-].[O-]B([O-])[O-].[O-]B([O-])[O-].[O-]B([O-])[O-].[O-]B([O-])[O-].[O-]B([O-])[O-],-0.42018642020,0.00000000000,1,G1,588.51200,-40.87320,60.48720,38,24,0,38,0,224,0,0,0,0,679.44,258.64660688692,-0.00000001412,148.85440771055
A-4064,sodium 2-phenoxyacetate,"InChI=1S/C8H8O3.Na/c9-8(10)6-11-7-4-2-1-3-5-7;/h1-5H,6H2,(H,9,10);/q;+1/p-1",WPTJBFNYRRZIDZ-UHFFFAOYSA-M,[Na+].[O-]C(=O)COc1ccccc1,0.10859570510,0.00000000000,1,G1,174.13100,-3.18070,36.94400,12,3,0,4,3,58,1,0,0,1,49.36,92.64398805275,0.00000121000,235.31810563069
A-4066,"sodium 4-{[4-(diethylamino)phenyl][4-(diethyliminio)cyclohexa-2,5-dien-1-ylidene]methyl}benzene-1,3-disulfonate","InChI=1S/C27H32N2O6S2.Na/c1-5-28(6-2)22-13-9-20(10-14-22)27(21-11-15-23(16-12-21)29(7-3)8-4)25-18-17-24(36(30,31)32)19-26(25)37(33,34)35;/h9-19H,5-8H2,1-4H3,(H-,30,31,32,33,34,35);/q;+1/p-1",SJEYSFABYSGQBG-UHFFFAOYSA-M,[Na+].CCN(CC)c1ccc(cc1)[C+](c2ccc(cc2)N(CC)CC)c3ccc(cc3[S]([O-])(=O)=O)[S]([O-])(=O)=O,-0.40668926850,0.00000000000,1,G1,566.67700,1.21039,142.92340,38,8,0,11,11,198,3,0,0,3,120.88,248.02040954439,0.00000506999,1363.89452549715
A-4070,2-chlorophenol,"InChI=1S/C6H5ClO/c7-5-3-1-2-4-6(5)8/h1-4,8H",ISPYQTSUDJAMAB-UHFFFAOYSA-N,Oc1ccccc1Cl,-0.75383920190,0.14514268707,3,G5,128.55800,2.04560,33.11680,8,1,1,2,0,42,1,0,0,1,20.23,52.52890309857,3.13486151135,164.63833891467
A-4073,"4-bromo-1,2-dichlorobenzene",InChI=1S/C6H3BrCl2/c7-4-1-2-5(8)6(9)3-4/h1-3H,CFPZDVAZISWERM-UHFFFAOYSA-N,Clc1ccc(Br)cc1Cl,-1.01149355010,0.00000000000,1,G1,225.90000,3.75590,44.16200,9,0,0,3,0,48,1,0,0,1,0.00,71.90548317890,3.17167803044,222.29788705001
A-4074,butyldimethylamine,"InChI=1S/C6H15N/c1-4-5-6-7(2)3/h4-6H2,1-3H3/p+1",DJEQZVQFEPKLOY-UHFFFAOYSA-O,CCCC[NH+](C)C,-0.66703246440,0.00000000000,1,G1,102.20100,-0.06900,32.58570,7,0,1,1,3,44,0,0,0,0,4.44,46.32379527002,2.67825774316,33.16125945873
A-4075,tetrasodium 4-hydroxy-7-[({5-hydroxy-7-sulfonato-6-[(E)-2-(6-sulfonatonaphthalen-2-yl)diazen-1-yl]naphthalen-2-yl}carbamoyl)amino]-3-[(E)-2-(6-sulfonatonaphthalen-2-yl)diazen-1-yl]naphthalene-2-sulfonate,"InChI=1S/C41H28N6O15S4.4Na/c48-34-20-33(46-44-26-11-12-28-22(15-26)4-2-5-35(28)63(51,52)53)40(66(60,61)62)30-14-10-25(18-32(30)34)43-41(50)42-24-9-13-29-23(16-24)17-37(65(57,58)59)38(39(29)49)47-45-27-8-7-21-3-1-6-36(31(21)19-27)64(54,55)56;;;;/h1-20,44-46H,(H,42,50)(H,51,52,53)(H,54,55,56)(H,57,58,59)(H,60,61,62);;;;/q;4*+1/p-4/b43-25?,47-38+;;;;",NBJHNXDETPQRBX-VHSPQIIZSA-J,[Na+].[Na+].[Na+].[Na+].[O-][S](=O)(=O)c1cccc2cc(NNC3=CC(=O)C4=CC(C=CC4=C3[S]([O-])(=O)=O)=NC(=O)Nc5ccc6C(=O)C(=N/Nc7ccc8cccc(c8c7)[S]([O-])(=O)=O)/C(=Cc6c5)[S]([O-])(=O)=O)ccc12,-0.68721713710,0.00000000000,1,G1,1060.89800,-8.28060,233.57510,70,19,4,29,10,336,5,0,3,8,352.85,486.50061826730,0.00000266450,3782.06860030220
A-4076,2-[1-(aminomethyl)cyclohexyl]acetic acid hydrochloride,"InChI=1S/C9H17NO2.ClH/c10-7-9(6-8(11)12)4-2-1-3-5-9;/h1-7,10H2,(H,11,12);1H",XBUDZAQEMFGLEU-UHFFFAOYSA-N,[H+].[Cl-].NCC1(CCCCC1)CC(O)=O,0.01902114630,0.01394334604,3,G5,207.70100,-1.51320,47.93720,13,2,2,4,3,78,0,1,1,1,63.32,86.58649496077,0.00000000000,172.19488940668
A-4078,guanidine hydrochloride,"InChI=1S/CH5N3.ClH/c2-1(3)4;/h(H5,2,3,4);1H",PJJJBBJSCAKJQF-UHFFFAOYSA-N,[H+].[Cl-].NC(N)=N,1.35228504390,0.00000000000,1,G1,95.53300,-4.04493,17.21350,5,1,3,4,0,32,0,0,0,0,75.89,37.74227504316,-0.00000004500,33.77443751082
A-4082,"ethane-1,2-diyl bis(3-oxobutanoate)","InChI=1S/C10H14O6/c1-7(11)5-9(13)15-3-4-16-10(14)6-8(2)12/h3-6H2,1-2H3",SJCUPJATWUWGAV-UHFFFAOYSA-N,CC(=O)CC(=O)OCCOC(=O)CC(C)=O,-0.03375590030,0.00000000000,1,G1,230.21600,0.03100,52.51400,16,6,0,6,7,90,0,0,0,0,86.74,92.89690891659,3.52818393729,263.68437978331
A-4083,sodium 4-aminobenzene-1-sulfonate,"InChI=1S/C6H7NO3S.Na/c7-5-1-3-6(4-2-5)11(8,9)10;/h1-4H,7H2,(H,8,9,10);/q;+1/p-1",KSVSZLXDULFGDQ-UHFFFAOYSA-M,[Na+].Nc1ccc(cc1)[S]([O-])(=O)=O,0.03795541540,0.00000000000,1,G1,195.17500,-2.82310,38.81760,12,4,1,6,1,60,1,0,0,1,83.22,92.81332944926,0.00000121000,345.56087669722
A-4084,"1,3,5-trioxane",InChI=1S/C3H6O3/c1-4-2-6-3-5-1/h1-3H2,BGJSXRVXTHVRSN-UHFFFAOYSA-N,C1OCOCO1,0.37171712590,0.04540370700,2,G3,90.07800,-0.07770,17.85600,6,3,0,3,0,36,0,1,1,1,27.69,35.80393979161,2.00000000000,21.50977500433
A-4086,manganese(2+) ion hydrogen phosphate,"InChI=1S/Mn.H3O4P/c;1-5(2,3)4/h;(H3,1,2,3,4)/q+2;/p-2",CPSYWNLKRDURMG-UHFFFAOYSA-L,[Mn++].O[P]([O-])([O-])=O,0.14554716950,0.00000000000,1,G1,150.91600,-2.19510,9.82530,6,3,1,6,0,37,0,0,0,0,83.42,44.90224111672,0.00000000000,53.68367439558
A-4087,zinc(2+) ion sulfate,"InChI=1S/H2O4S.H2O.Zn/c1-5(2,3)4;;/h(H2,1,2,3,4);1H2;/q;;+2/p-2",RNZCSKGULNFAMC-UHFFFAOYSA-L,O.[Zn++].[O-][S]([O-])(=O)=O,0.07029543230,0.00000000000,1,G1,179.46800,-2.16520,14.08840,7,4,0,7,0,40,0,0,0,0,111.76,53.37026402271,-0.00000008000,91.24856184822
A-4088,disodium oxosilanebis(olate),InChI=1S/2Na.O3Si/c;;1-4(2)3/q2*+1;-2,NTHWMYGWWRZVTN-UHFFFAOYSA-N,[Na+].[Na+].[O-][Si]([O-])=O,0.23563525510,0.00000000000,1,G1,122.06300,-8.86960,6.44050,6,3,0,6,0,24,0,0,0,0,63.19,81.24068428325,-0.00000004500,31.77443751082
A-4091,"sodium 2-{2-[(2,6-dichlorophenyl)amino]phenyl}acetate","InChI=1S/C14H11Cl2NO2.Na/c15-10-5-3-6-11(16)14(10)17-12-7-2-1-4-9(12)8-13(18)19;/h1-7,17H,8H2,(H,18,19);/q;+1/p-1",KPHWPUGNDIVLNH-UHFFFAOYSA-M,[Na+].[O-]C(=O)Cc1ccccc1Nc2c(Cl)cccc2Cl,-1.17423184770,0.00000000000,1,G1,318.13500,0.03340,74.89770,20,3,1,6,4,98,2,0,0,2,52.16,148.74393166668,0.00000200000,599.62294058662
A-4092,"disodium 3,3'-[[6-[bis(2-hydroxyethyl)amino]-1,3,5-triazine-2,4-diyl]bis[imino(3-methoxy-4,1-phenylene)azo]]bis[benzenesulphonate]","InChI=1S/C33H34N10O10S2.2Na/c1-52-29-19-23(41-39-21-5-3-7-25(17-21)54(46,47)48)9-11-27(29)34-31-36-32(38-33(37-31)43(13-15-44)14-16-45)35-28-12-10-24(20-30(28)53-2)42-40-22-6-4-8-26(18-22)55(49,50)51;;/h3-12,17-20,44-45H,13-16H2,1-2H3,(H,46,47,48)(H,49,50,51)(H2,34,35,36,37,38);;/q;2*+1/p-2",NUTZBMSWUMFSIW-UHFFFAOYSA-L,[Na+].[Na+].COc1cc(ccc1Nc2nc(Nc3ccc(cc3OC)N=Nc4cccc(c4)[S]([O-])(=O)=O)nc(n2)N(CCO)CCO)N=Nc5cccc(c5)[S]([O-])(=O)=O,-1.60081552480,0.00000000000,1,G1,838.79300,-1.18600,195.92740,57,20,4,24,17,288,5,0,0,5,288.73,371.16111952828,0.00000435124,2283.53285574135
A-4093,"2-ethyl-2-{[2-ethyl-3-hydroxy-2-(hydroxymethyl)propoxy]methyl}propane-1,3-diol","InChI=1S/C12H26O5/c1-3-11(5-13,6-14)9-17-10-12(4-2,7-15)8-16/h13-16H,3-10H2,1-2H3",WMYINDVYGQKYMI-UHFFFAOYSA-N,CCC(CO)(CO)COCC(CC)(CO)CO,-1.07630227900,0.04635113950,2,G3,250.33500,-0.23500,64.61020,17,5,4,5,10,104,0,0,0,0,90.15,103.04409452448,4.27630263018,150.80568456189
A-4094,methyl 3-sulfanylpropanoate,"InChI=1S/C4H8O2S/c1-6-4(5)2-3-7/h7H,2-3H2,1H3",LDTLDBDUBGAEDT-UHFFFAOYSA-N,COC(=O)CCS,-0.75758760830,0.00000000000,1,G1,120.17300,0.47930,30.48600,7,3,1,3,2,42,0,0,0,0,26.30,48.26421136397,3.00259052867,62.71013448036
A-4096,sodium 4-[(4-methyl-3-nitrobenzoyl)amino]benzenesulfonate,"InChI=1S/C14H12N2O6S.Na/c1-9-2-3-10(8-13(9)16(18)19)14(17)15-11-4-6-12(7-5-11)23(20,21)22;/h2-8H,1H3,(H,15,17)(H,20,21,22);/q;+1/p-1",YLDIMJOASVRWAO-UHFFFAOYSA-M,[Na+].Cc1ccc(cc1[N+]([O-])=O)C(=O)Nc2ccc(cc2)[S]([O-])(=O)=O,-1.23203599800,0.00000000000,1,G1,358.30700,-0.93638,80.19180,24,6,1,10,4,120,2,0,0,2,129.44,159.62477719326,0.00000288000,880.63772185003
A-4097,(4-methyl-1H-imidazol-5-yl)methanol,"InChI=1S/C5H8N2O/c1-4-5(2-8)7-3-6-4/h3,8H,2H2,1H3,(H,6,7)",AXJZCJSXNZZMDU-UHFFFAOYSA-N,Cc1[nH]cnc1CO,0.26833376660,0.00000000000,1,G1,112.13200,0.21042,29.24750,8,2,2,3,1,44,1,0,0,1,48.91,47.38432950245,2.92251830836,170.69152791027
A-4099,potassium dihydrogenorthophosphate,"InChI=1S/K.H3O4P/c;1-5(2,3)4/h;(H3,1,2,3,4)/q+1;/p-1",GNSKLFRGEWLPPA-UHFFFAOYSA-M,[K+].O[P](O)([O-])=O,0.18425626870,0.00000000000,1,G1,136.08400,-4.55660,12.04410,6,2,2,6,0,32,0,0,0,0,80.59,77.22918553986,0.00000000000,53.68367439558
A-4100,prop-2-enal,"InChI=1S/C3H4O/c1-2-3-4/h2-3H,1H2",HGINCPLSRVDWNT-UHFFFAOYSA-N,C=CC=O,0.56937925480,0.20031037260,2,G3,56.06400,0.37130,16.26100,4,1,0,1,1,22,0,0,0,0,17.07,24.94105432448,2.73205080757,24.26466250649
A-4102,cerium(+3) cation; hydrogen sulfate; sulfate; tetrahydrate,"InChI=1S/Ce.2H2O4S.4H2O/c;2*1-5(2,3)4;;;;/h;2*(H2,1,2,3,4);4*1H2/q+3;;;;;;/p-3",ZBNJQJDKRZKDSV-UHFFFAOYSA-K,O.O.O.O.[Ce+3].O[S]([O-])(=O)=O.[O-][S]([O-])(=O)=O,-0.29181697350,0.00000000000,1,G1,405.31000,-5.63220,37.25580,15,7,1,15,0,97,0,0,0,0,283.69,118.44965855557,-0.00000001280,209.99724466199
A-4103,azane; molybdenum; tetracosahydrate,InChI=1S/7Mo.6H3N.24H2O/h;;;;;;;6*1H3;24*1H2,QGAVSDVURUSLQK-UHFFFAOYSA-N,N.N.N.N.N.N.O.O.O.O.O.O.O.O.O.O.O.O.O.O.O.O.O.O.O.O.O.O.O.O.[Mo].[Mo].[Mo].[Mo].[Mo].[Mo].[Mo],-0.76647262350,0.00000000000,1,G1,1206.12600,-18.83830,116.86380,37,6,6,37,0,282,0,0,0,0,966.00,312.43767886800,0.00000000000,47.54941505223
A-4104,ammonium perchlorate,"InChI=1S/ClHO4.H3N/c2-1(3,4)5;/h(H,2,3,4,5);1H3",HHEFNVCDPLQQTP-UHFFFAOYSA-N,[NH4+].[O-][Cl](=O)(=O)=O,0.24366283580,0.00000000000,1,G1,117.48800,-4.37980,5.98480,6,4,1,6,0,40,0,0,0,0,128.74,36.14765255314,0.00000000000,23.01955000865
A-4105,"Cuprate(6-), [2-[[[[3-[[4-chloro-6-[[4-[[4-chloro-6-[(3-sulfophenyl)amino]-1,3,5-triazin-2-yl]amino]-2,5-disulfophenyl]amino]-1,3,5-triazin-2-yl]amino]-2-hydroxy-5-sulfophenyl]azo]phenylmethyl]azo]-5-sulfobenzoato(8-)]-, pentasodium hydrogen, (SP-4-3)-","InChI=1S/C38H28Cl2N14O18S5.Cu.5Na/c39-33-45-35(41-18-7-4-8-19(11-18)73(58,59)60)49-36(46-33)42-24-15-29(77(70,71)72)25(16-28(24)76(67,68)69)43-37-47-34(40)48-38(50-37)44-26-13-21(75(64,65)66)14-27(30(26)55)52-54-31(17-5-2-1-3-6-17)53-51-23-10-9-20(74(61,62)63)12-22(23)32(56)57;;;;;;/h1-16H,(H12,41,42,43,44,45,46,47,48,49,50,51,52,53,54,55,56,57,58,59,60,61,62,63,64,65,66,67,68,69,70,71,72);;;;;;/q;+2;5*+1/p-7",NKKZYKFZYINUQZ-UHFFFAOYSA-G,[Na+].[Na+].[Na+].[Na+].[Na+].[Cu++].[O-]C(=O)c1cc(ccc1NNC(=N/Nc2cc(cc([N-]c3nc(Cl)nc(n3)N=C4C=C(C(C=C4[S]([O-])(=O)=O)=Nc5nc(Cl)nc(Nc6cccc(c6)[S]([O-])(=O)=O)n5)[S]([O-])(=O)=O)c2[O-])[S]([O-])(=O)=O)\c7ccccc7)[S]([O-])(=O)=O.[H+],-0.82541123410,0.00000000000,1,G1,1371.40300,-14.16930,256.85030,83,30,4,45,17,411,6,0,1,7,525.83,601.59193101254,0.00000984142,4234.89733448590
A-4106,2-methylprop-2-enamide,"InChI=1S/C4H7NO/c1-3(2)4(5)6/h1H2,2H3,(H2,5,6)",FQPSGWSUVKBHSU-UHFFFAOYSA-N,CC(=C)C(N)=O,0.37539119040,0.15267568475,2,G3,85.10600,0.04780,24.00840,6,1,1,2,1,34,0,0,0,0,43.09,36.64588713589,3.56770345504,73.54887502163
A-4107,"hexasodium 2-{[4-(diethylamino)-6-({4-[(E)-2-(4-{[4-(diethylamino)-6-[(2,5-disulfonatophenyl)amino]-1,3,5-triazin-2-yl]amino}-2-sulfonatophenyl)ethenyl]-3-sulfonatophenyl}amino)-1,3,5-triazin-2-yl]amino}benzene-1,4-disulfonate","InChI=1S/C40H44N12O18S6.6Na/c1-5-51(6-2)39-47-35(45-37(49-39)43-29-21-27(71(53,54)55)15-17-31(29)73(59,60)61)41-25-13-11-23(33(19-25)75(65,66)67)9-10-24-12-14-26(20-34(24)76(68,69)70)42-36-46-38(50-40(48-36)52(7-3)8-4)44-30-22-28(72(56,57)58)16-18-32(30)74(62,63)64;;;;;;/h9-22H,5-8H2,1-4H3,(H,53,54,55)(H,56,57,58)(H,59,60,61)(H,62,63,64)(H,65,66,67)(H,68,69,70)(H2,41,43,45,47,49)(H2,42,44,46,48,50);;;;;;/q;6*+1/p-6/b10-9+;;;;;;",KMPSLWWDIJFERN-PTNBLCRGSA-H,[Na+].[Na+].[Na+].[Na+].[Na+].[Na+].CCN(CC)c1nc(Nc2ccc(\C=C\c3ccc(Nc4nc(Nc5cc(ccc5[S]([O-])(=O)=O)[S]([O-])(=O)=O)nc(n4)N(CC)CC)cc3[S]([O-])(=O)=O)c(c2)[S]([O-])(=O)=O)nc(Nc6cc(ccc6[S]([O-])(=O)=O)[S]([O-])(=O)=O)n1,-0.81224902260,0.00000000000,1,G1,1305.15200,-15.65760,262.38200,82,30,4,42,22,408,6,0,0,6,475.14,604.96591001863,0.00001093499,3751.93623699076