ID,Name,InChI,InChIKey,SMILES,Solubility,SD,Ocurrences,Group,MolWt,MolLogP,MolMR,HeavyAtomCount,NumHAcceptors,NumHDonors,NumHeteroatoms,NumRotatableBonds,NumValenceElectrons,NumAromaticRings,NumSaturatedRings,NumAliphaticRings,RingCount,TPSA,LabuteASA,BalabanJ,BertzCT
A-791,"androsta-1,4-diene-3,17-dione","InChI=1S/C19H24O2/c1-18-9-7-13(20)11-12(18)3-4-14-15-5-6-17(21)19(15,2)10-8-16(14)18/h7,9,11,14-16H,3-6,8,10H2,1-2H3",LUJVUUWNAPIQQI-UHFFFAOYSA-N,CC12CCC3C(CCC4=CC(=O)C=CC34C)C1CCC2=O,-2.82045960940,0.01522980470,2,G3,284.39900,3.86340,81.62300,21,2,0,2,0,112,0,3,4,4,34.14,126.22872260857,1.72041410318,584.37377380960
A-792,2-phenylethyl pivalate,"InChI=1S/C13H18O2/c1-13(2,3)12(14)15-10-9-11-7-5-4-6-8-11/h4-8H,9-10H2,1-3H3",DPVYDTACPLLHCF-UHFFFAOYSA-N,CC(C)(C)C(=O)OCCc1ccccc1,-3.67528008950,0.00000000000,1,G1,206.28500,2.81840,60.56000,15,2,0,2,3,82,1,0,0,1,26.30,91.26106524982,2.31674860806,309.05787974664
A-793,1-cyclohexylethyl acetate,"InChI=1S/C10H18O2/c1-8(12-9(2)11)10-6-4-3-5-7-10/h8,10H,3-7H2,1-2H3",JAVZALBKNIHSLL-UHFFFAOYSA-N,CC(OC(C)=O)C1CCCCC1,-3.59762376680,0.00000000000,1,G1,170.25200,2.51830,47.80300,12,2,0,2,2,70,0,1,1,1,26.30,74.29296623342,2.28866150891,147.91756911170
A-794,"4-(2,6,6-trimethylcyclohex-1-en-1-yl)butan-2-one","InChI=1S/C13H22O/c1-10-6-5-9-13(3,4)12(10)8-7-11(2)14/h5-9H2,1-4H3",QJJDNZGPQDGNDX-UHFFFAOYSA-N,CC(=O)CCC1=C(C)CCCC1(C)C,-3.65504457630,0.00000000000,1,G1,194.31800,3.88220,60.24700,14,1,0,1,3,80,0,0,1,1,17.07,87.58464431492,2.74523074829,258.40912820820
A-797,bromo(ethyl)triphenylphosphorane,"InChI=1S/C20H20P.BrH/c1-2-21(18-12-6-3-7-13-18,19-14-8-4-9-15-19)20-16-10-5-11-17-20;/h3-17H,2H2,1H3;1H/q+1;/p-1",JHYNXXDQQHTCHJ-UHFFFAOYSA-M,[Br-].CC[P+](c1ccccc1)(c2ccccc2)c3ccccc3,-0.93721852860,0.00000000000,1,G1,371.25800,1.00440,95.68900,22,0,0,2,4,112,3,0,0,3,0.00,143.87275833323,0.00000176333,584.00858329644
A-800,"benzyl({[(2,6-dimethylphenyl)carbamoyl]methyl})diethylazanium benzoate hydrate","InChI=1S/C21H28N2O.C7H6O2/c1-5-23(6-2,15-19-13-8-7-9-14-19)16-20(24)22-21-17(3)11-10-12-18(21)4;8-7(9)6-4-2-1-3-5-6/h7-14H,5-6,15-16H2,1-4H3;1-5H,(H,8,9)",VWTINHYPRWEBQY-UHFFFAOYSA-N,CC[N+](CC)(CC(=O)Nc1c(C)cccc1C)Cc2ccccc2.[O-]C(=O)c3ccccc3,-1.02095860600,0.01213057655,2,G3,446.59100,4.34884,131.67360,33,3,1,5,8,174,3,0,0,3,69.23,196.83778912181,0.00000035731,1009.27284556857
A-803,hexan-1-ol,"InChI=1S/C6H14O/c1-2-3-4-5-6-7/h7H,2-6H2,1H3",ZSIAUFGUXNUGDI-UHFFFAOYSA-N,CCCCCCO,-1.38291012200,0.27521010141,4,G5,102.17700,1.55900,31.22780,7,1,1,1,4,44,0,0,0,0,20.23,45.35819535201,2.44747288788,23.36099039895
A-808,5-methyl-2-(propan-2-yl)cyclohexan-1-ol,"InChI=1S/C10H20O/c1-7(2)9-5-4-8(3)6-10(9)11/h7-11H,4-6H2,1-3H3/t8-,9+,10-/m1/s1",NOOLISFMXDJSKH-KXUCPTDWSA-N,CC(C)[C@@H]1CC[C@@H](C)C[C@H]1O,-2.57062354260,0.04511758682,7,G5,156.26900,2.43950,47.34980,11,1,1,1,1,66,0,1,1,1,20.23,69.81213265607,2.43715926003,120.04118472439
A-811,"(2E,6E)-3,7-dimethylnona-2,6-dienenitrile","InChI=1S/C11H17N/c1-4-10(2)6-5-7-11(3)8-9-12/h6,8H,4-5,7H2,1-3H3/b10-6+,11-8+",DHJVLXVXNFUSMU-NSJFVGFPSA-N,CC/C(C)=C/CC/C(C)=C/C#N,-3.58964114220,0.00000000000,1,G1,163.26400,3.59278,52.65200,12,1,0,1,4,66,0,0,0,0,23.79,75.40204578890,3.71628722139,215.64883668805
A-812,5-hexyl-5-methyldihydrofuran-2(3H)-one,"InChI=1S/C11H20O2/c1-3-4-5-6-8-11(2)9-7-10(12)13-11/h3-9H2,1-2H3",ALWUKGXLBSQSMA-UHFFFAOYSA-N,CCCCCCC1(C)CCC(=O)O1,-2.64326182390,0.00000000000,1,G1,184.27900,3.05250,52.49000,13,2,0,2,5,76,0,1,1,1,26.30,80.65790834782,2.16033097902,176.92909232632
A-813,2-methoxy-2-methylpropane,"InChI=1S/C5H12O/c1-5(2,3)6-4/h1-4H3",BZLVMXJERCGZMT-UHFFFAOYSA-N,COC(C)(C)C,-0.32352685430,0.08886853898,3,G5,88.15000,1.43130,26.76200,6,1,0,1,0,38,0,0,0,0,9.23,39.31256471492,3.16848987267,33.69332843437
A-816,sodium 2-amino-5-nitrobenzenesulfonate,"InChI=1S/C6H6N2O5S.Na/c7-5-2-1-4(8(9)10)3-6(5)14(11,12)13;/h1-3H,7H2,(H,11,12,13);/q;+1/p-1",VTMRGLXTSDVXAE-UHFFFAOYSA-M,[Na+].Nc1ccc(cc1[S]([O-])(=O)=O)[N+]([O-])=O,-1.76773851790,0.00000000000,1,G1,240.17200,-2.91490,45.47200,15,6,1,9,2,76,1,0,0,1,126.36,107.46630517176,0.00000196000,486.29566300577
A-818,Patchoulialcohol,"InChI=1S/C15H26O/c1-10-5-8-15(16)13(2,3)11-6-7-14(15,4)12(10)9-11/h10-12,16H,5-9H2,1-4H3/t10-,11?,12?,14-,15?/m0/s1",GGHMUJBZYLPWFD-DUNKBJDJSA-N,C[C@H]1CCC2(O)C(C)(C)C3CC[C@@]2(C)C1C3,-3.72590382030,0.00000000000,1,G1,222.37200,3.60980,66.06680,16,1,1,1,0,92,0,4,4,4,20.23,99.62518092099,2.12928941476,321.39664106587
A-819,"(2-phenylbutan-2-yl)benzene; (2-phenylethyl)benzene; 1,2,4,5-tetraethylbenzene; 1-methyl-2-phenylbenzene; 1-methylnaphthalene; benzene; cyclohexylbenzene; ethenylbenzene; ethylbenzene; phenylbenzene; toluene","InChI=1S/C16H18.C14H14.C14H22.C13H12.C12H16.C12H10.C11H10.C8H10.C8H8.C7H8.C6H6/c1-3-16(2,14-10-6-4-7-11-14)15-12-8-5-9-13-15;1-3-7-13(8-4-1)11-12-14-9-5-2-6-10-14;1-5-11-9-13(7-3)14(8-4)10-12(11)6-2;1-11-7-5-6-10-13(11)12-8-3-2-4-9-12;2*1-3-7-11(8-4-1)12-9-5-2-6-10-12;1-9-5-4-7-10-6-2-3-8-11(9)10;2*1-2-8-6-4-3-5-7-8;1-7-5-3-2-4-6-7;1-2-4-6-5-3-1/h4-13H,3H2,1-2H3;1-10H,11-12H2;9-10H,5-8H2,1-4H3;2-10H,1H3;1,3-4,7-8,12H,2,5-6,9-10H2;1-10H;2-8H,1H3;3-7H,2H2,1H3;2-7H,1H2;2-6H,1H3;1-6H",ILFKMCMFANUWPS-UHFFFAOYSA-N,CCc1ccccc1.CCc2cc(CC)c(CC)cc2CC.CCC(C)(c3ccccc3)c4ccccc4.Cc5ccccc5.Cc6ccccc6c7ccccc7.Cc8cccc9ccccc89.C=Cc%10ccccc%10.C%11CCC(CC%11)c%12ccccc%12.C(Cc%13ccccc%13)c%14ccccc%14.c%15ccccc%15.c%16ccc(cc%16)c%17ccccc%17,-4.58817684190,0.10742192405,2,G3,1588.40300,33.96896,533.29500,121,0,0,0,15,618,16,1,1,17,0.00,731.12870097442,0.00000018500,4995.82044021279
A-824,dibenzylamine,"InChI=1S/C14H15N/c1-3-7-13(8-4-1)11-15-12-14-9-5-2-6-10-14/h1-10,15H,11-12H2",BWLUMTFWVZZZND-UHFFFAOYSA-N,C(NCc1ccccc1)c2ccccc2,-2.68763023740,0.00000000000,1,G1,197.28100,2.97640,63.42770,15,1,1,1,4,76,2,0,0,2,12.03,90.76824373796,1.80958075797,341.09815896246
A-825,"5-methyl-1H-1,2,3-benzotriazole","InChI=1S/C7H7N3/c1-5-3-2-4-6-7(5)9-10-8-6/h2-4H,1H3,(H,8,9,10)",CMGDVUCDZOBDNL-UHFFFAOYSA-N,Cc1cccc2n[nH]nc12,-1.51696353880,0.00000000000,1,G1,133.15400,1.26632,38.62570,10,2,1,3,0,50,2,0,0,2,41.57,58.06337328535,2.95009030532,350.37870592410
A-826,3-amino-2-hydroxy-5-nitrobenzene-1-sulfonic acid,"InChI=1S/C6H6N2O6S/c7-4-1-3(8(10)11)2-5(6(4)9)15(12,13)14/h1-2,9H,7H2,(H,12,13,14)",DQIVFTJHYKDOMZ-UHFFFAOYSA-N,Nc1cc(cc(c1O)[S](O)(=O)=O)[N+]([O-])=O,-1.76620556780,0.00000000000,1,G1,234.18900,0.12930,48.98820,15,6,3,9,2,82,1,0,0,1,143.76,83.84713930125,3.59475398863,522.66881136131
A-827,"tetrasodium 5-{[(2E)-6-[bis(2-hydroxyethyl)amino]-4-[(4-sulfonatophenyl)amino]-1,2-dihydro-1,3,5-triazin-2-ylidene]amino}-2-[(E)-2-(4-{[(2E)-6-[bis(2-hydroxyethyl)amino]-4-[(4-sulfonatophenyl)amino]-1,2-dihydro-1,3,5-triazin-2-ylidene]amino}-2-sulfonatophenyl)ethenyl]benzene-1-sulfonate","InChI=1S/C40H44N12O16S4.4Na/c53-19-15-51(16-20-54)39-47-35(41-27-5-9-29(10-6-27)69(57,58)59)45-37(49-39)43-31-13-3-25(23-33(31)71(63,64)65)1-2-26-4-14-32(34(24-26)72(66,67)68)44-38-46-36(48-40(50-38)52(17-21-55)18-22-56)42-28-7-11-30(12-8-28)70(60,61)62;;;;/h1-14,23-24,53-56H,15-22H2,(H,57,58,59)(H,60,61,62)(H,63,64,65)(H,66,67,68)(H2,41,43,45,47,49)(H2,42,44,46,48,50);;;;/q;4*+1/p-4/b2-1+;;;;",UGOUPNUFULXHAK-MBCFVHIPSA-J,[Na+].[Na+].[Na+].[Na+].OCCN(CCO)c1nc(Nc2ccc(cc2)[S]([O-])(=O)=O)nc(Nc3ccc(\C=C\c4ccc(Nc5nc(Nc6ccc(cc6)[S]([O-])(=O)=O)nc(n5)N(CCO)CCO)c(c4)[S]([O-])(=O)=O)cc3[S]([O-])(=O)=O)n1,-0.46428680950,0.10542668265,2,G3,1165.05600,-11.58420,252.10280,76,28,8,36,24,384,6,0,0,6,441.66,524.05877376191,0.00000494083,3181.66631239456
A-830,"1,2-dimethyl benzene-1,2-dicarboxylate","InChI=1S/C10H10O4/c1-13-9(11)7-5-3-4-6-8(7)10(12)14-2/h3-6H,1-2H3",NIQCNGHVCWTJSM-UHFFFAOYSA-N,COC(=O)c1ccccc1C(=O)OC,-1.68615792460,0.13212512892,3,G5,194.18600,1.25980,49.12100,14,4,0,4,2,74,1,0,0,1,52.60,81.44130623618,3.15383993103,321.89456038917
A-831,"4-{bis[4-(dimethylamino)phenyl]methylidene}-N,N-dimethylcyclohexa-2,5-dien-1-iminium chloride","InChI=1S/C25H30N3.ClH/c1-26(2)22-13-7-19(8-14-22)25(20-9-15-23(16-10-20)27(3)4)21-11-17-24(18-12-21)28(5)6;/h7-18H,1-6H3;1H/q+1;/p-1",ZXJXZNDDNMQXFV-UHFFFAOYSA-M,[Cl-].CN(C)c1ccc(cc1)[C+](c2ccc(cc2)N(C)C)c3ccc(cc3)N(C)C,-2.00858846270,0.00000000000,1,G1,407.98900,1.90779,122.85600,29,3,0,4,6,152,3,0,0,3,9.72,181.53278059556,0.00000300000,760.42305679142
A-832,6-heptyloxan-2-one,"InChI=1S/C10H18O2/c1-2-3-4-6-9-7-5-8-10(11)12-9/h9H,2-8H2,1H3",GHBSPIPJMLAMEP-UHFFFAOYSA-N,CCCCCC1CCCC(=O)O1,-1.62903223110,0.00000000000,1,G1,170.25200,2.66240,47.87300,12,2,0,2,4,70,0,1,1,1,26.30,74.29296623342,2.09772774573,142.77400566229
A-833,"ethyl 4,4,4-trifluoro-3-oxobutanoate","InChI=1S/C6H7F3O3/c1-2-12-5(11)3-4(10)6(7,8)9/h2-3H2,1H3",OCJKUQIPRNZDTK-UHFFFAOYSA-N,CCOC(=O)CC(=O)C(F)(F)F,-1.66302446330,0.15051223165,2,G3,184.11300,1.07100,32.31200,12,3,0,6,3,70,0,0,0,0,43.37,66.49715723819,3.93718701618,184.96755675238
A-834,"oxydiethane-2,1-diyl dinitrate",InChI=1S/C4H8N2O7/c7-5(8)12-3-1-11-2-4-13-6(9)10/h1-4H2,LYAGTVMJGHTIDH-UHFFFAOYSA-N,[O-][N+](=O)OCCOCCO[N+]([O-])=O,-1.69045082090,0.00886707747,3,G5,196.11500,-0.58040,36.71180,13,7,0,9,8,76,0,0,0,0,113.97,72.38874150350,2.99610499791,153.87547739229
A-841,diphenylsilanediol,"InChI=1S/C12H12O2Si/c13-15(14,11-7-3-1-4-8-11)12-9-5-2-6-10-12/h1-10,13-14H",OLLFKUHHDPMQFR-UHFFFAOYSA-N,O[Si](O)(c1ccccc1)c2ccccc2,-2.73302062150,0.00000000000,1,G1,216.31200,0.22760,62.34360,15,2,2,3,2,76,2,0,0,2,40.46,89.70460913315,2.44218651072,384.38981176780
A-842,pentyl pentanoate,"InChI=1S/C10H20O2/c1-3-5-7-9-12-10(11)8-6-4-2/h3-9H2,1-2H3",FGPPDYNPZTUNIU-UHFFFAOYSA-N,CCCCCOC(=O)CCCC,-3.62448130370,0.00000000000,1,G1,172.26800,2.91000,50.00900,12,2,0,2,7,72,0,0,0,0,26.30,75.29879738695,3.08372079395,110.40620687739
A-843,"3-methyl-1-({3-[(3-methyl-2,5-dioxo-2,5-dihydro-1H-pyrrol-1-yl)methyl]phenyl}methyl)-2,5-dihydro-1H-pyrrole-2,5-dione","InChI=1S/C18H16N2O4/c1-11-6-15(21)19(17(11)23)9-13-4-3-5-14(8-13)10-20-16(22)7-12(2)18(20)24/h3-8H,9-10H2,1-2H3",MIIBUHIQXLFJFP-UHFFFAOYSA-N,CC1=CC(=O)N(Cc2cccc(CN3C(=O)C=C(C)C3=O)c2)C1=O,-3.90033499320,0.00000000000,1,G1,324.33600,1.31680,85.07000,24,4,0,6,4,122,1,0,2,3,74.76,138.58559586141,1.73832461289,769.92544484110
A-844,nickel(2+) ion oxalate,"InChI=1S/C2H2O4.Ni/c3-1(4)2(5)6;/h(H,3,4)(H,5,6);/q;+2/p-2",DOLZKNFSRCEOFV-UHFFFAOYSA-L,[Ni++].[O-]C(=O)C([O-])=O,-3.55622850200,0.29869847530,2,G3,146.71100,-3.51630,10.01400,7,4,0,5,0,42,0,0,0,0,80.26,49.06245746642,0.00000000000,75.69058447171
A-848,(3Z)-hex-3-en-1-yl benzoate,"InChI=1S/C13H16O2/c1-2-3-4-8-11-15-13(14)12-9-6-5-7-10-12/h3-7,9-10H,2,8,11H2,1H3/b4-3-",BCOXBEHFBZOJJZ-ARJAWSKDSA-N,CC\C=C/CCOC(=O)c1ccccc1,-3.70489741670,0.00000000000,1,G1,204.26900,3.19970,60.77250,15,2,0,2,5,80,1,0,0,1,26.30,90.57146221764,2.28202203559,314.56765475097
A-851,"1,4-dimethyl 2-aminobenzene-1,4-dicarboxylate","InChI=1S/C10H11NO4/c1-14-9(12)6-3-4-7(8(11)5-6)10(13)15-2/h3-5H,11H2,1-2H3",DSSKDXUDARIMTR-UHFFFAOYSA-N,COC(=O)c1ccc(c(N)c1)C(=O)OC,-3.71850376480,0.00000000000,1,G1,209.20100,0.84200,53.53340,15,5,1,5,2,80,1,0,0,1,78.62,86.78119693320,3.08262765358,400.40890374142
A-853,8-ethylundecan-1-amine,"InChI=1S/C13H29N/c1-3-10-13(4-2)11-8-6-5-7-9-12-14/h13H,3-12,14H2,1-2H3",KFBNTNYCQVDLBK-UHFFFAOYSA-N,CCCC(CC)CCCCCCCN,-3.69762595680,0.00000000000,1,G1,199.38200,4.11200,65.44540,14,1,1,1,10,86,0,0,0,0,26.02,90.45844709760,3.15398230501,101.40868524464
A-855,dodecanedioic acid,"InChI=1S/C12H22O4/c13-11(14)9-7-5-3-1-2-4-6-8-10-12(15)16/h1-10H2,(H,13,14)(H,15,16)",TVIDDXQYHWJXFK-UHFFFAOYSA-N,OC(=O)CCCCCCCCCCC(O)=O,-3.76024148970,0.63324812739,5,G4,230.30400,3.05660,61.44160,16,2,2,4,11,94,0,0,0,0,74.60,96.66512599067,2.98470830136,179.19544121139
A-857,"4,4,8,8-tetramethyloctahydro-4a,7-methanonaphtho[1,8a-b]oxirene","InChI=1S/C15H24O/c1-12(2)7-6-11-15(16-11)13(3,4)10-5-8-14(12,15)9-10/h10-11H,5-9H2,1-4H3",VQHLGZRKOZIABH-UHFFFAOYSA-N,CC1(C)CCC2OC23C(C)(C)C4CCC13C4,-4.65292880020,0.00000000000,1,G1,220.35600,3.77030,64.17400,16,1,0,1,0,90,0,4,4,4,12.53,98.93866124477,1.93440928631,369.63124116972
A-861,"1-[(9,9-dimethyldecyl)sulfanyl]propan-2-ol","InChI=1S/C15H32OS/c1-14(16)13-17-12-10-8-6-5-7-9-11-15(2,3)4/h14,16H,5-13H2,1-4H3",XROXSXGRRMHJFJ-UHFFFAOYSA-N,CC(O)CSCCCCCCCCC(C)(C)C,-4.73094069240,0.00000000000,1,G1,260.48700,4.87720,80.77980,17,2,1,2,10,104,0,0,0,0,20.23,112.76578440694,3.04016832848,160.79497987366
A-862,dodecanoic acid,"InChI=1S/C12H24O2/c1-2-3-4-5-6-7-8-9-10-11-12(13)14/h2-11H2,1H3,(H,13,14)",POULHZVOKOAJMA-UHFFFAOYSA-N,CCCCCCCCCCCC(O)=O,-4.61958357110,0.52929178555,2,G2,200.32200,3.99190,59.47980,14,1,1,2,10,84,0,0,0,0,37.30,87.70937013843,2.88406461471,132.28341890015
A-863,"[2-butyl-4-chloro-1-({4-[2-(2H-1,2,3,4-tetrazol-5-yl)phenyl]phenyl}methyl)-1H-imidazol-5-yl]methanol","InChI=1S/C22H23ClN6O/c1-2-3-8-20-24-21(23)19(14-30)29(20)13-15-9-11-16(12-10-15)17-6-4-5-7-18(17)22-25-27-28-26-22/h4-7,9-12,30H,2-3,8,13-14H2,1H3,(H,25,26,27,28)",PSIFNNKUMBGKDQ-UHFFFAOYSA-N,CCCCc1nc(Cl)c(CO)n1Cc2ccc(cc2)c3ccccc3c4n[nH]nn4,-4.94501698620,0.00000000000,1,G1,422.92000,4.26680,115.92350,30,6,2,8,8,154,4,0,0,4,92.51,179.30208336077,1.62116797834,1105.37551760333
A-864,lutetium oxide,InChI=1S/2Lu.3O/q2*+3;3*-2,UGBIHFMRUDAMBY-UHFFFAOYSA-N,[O--].[O--].[O--].[Lu+3].[Lu+3],-4.91856653590,0.00000000000,1,G1,397.93100,-0.35640,2.05950,5,0,0,5,0,48,0,0,0,0,85.50,88.41878691681,0.00000000000,4.85475297227
A-865,2-ethylhexyl 2-sulfanylacetate,"InChI=1S/C10H20O2S/c1-3-5-6-9(4-2)7-12-10(11)8-13/h9,13H,3-8H2,1-2H3",OWHSTLLOZWTNTQ-UHFFFAOYSA-N,CCCCC(CC)COC(=O)CS,-4.63548162140,0.00000000000,1,G1,204.33500,2.67580,58.11800,13,3,1,3,7,78,0,0,0,0,26.30,86.45386405035,3.52283249863,136.88643538696
A-867,"(1,1-dimethylpropyl)benzene","InChI=1S/C11H16/c1-4-11(2,3)10-8-6-5-7-9-10/h5-9H,4H2,1-3H3",QHTJSSMHBLGUHV-UHFFFAOYSA-N,CCC(C)(C)c1ccccc1,-4.50074591950,0.17547295975,2,G3,148.24900,3.37420,49.75900,11,0,0,0,2,60,1,0,0,1,0.00,69.25611369148,2.92844453139,208.73973650168
A-868,"2-methyl-4-(2,6,6-trimethylcyclohex-2-en-1-yl)butanal","InChI=1S/C14H24O/c1-11-7-5-9-14(3,4)13(11)12(2)8-6-10-15/h7,10,12-13H,5-6,8-9H2,1-4H3",ACVNYUMGXUDACR-UHFFFAOYSA-N,CC(CCC=O)C1C(=CCCC1(C)C)C,-4.65320209140,0.44371487035,2,G3,208.34500,3.98410,64.72400,15,1,0,1,4,86,0,0,1,1,17.07,93.94958642932,2.74084533661,250.06431514215
A-870,"2,2-dimethyl-3-methylidenebicyclo[2.2.1]heptane","InChI=1S/C10H16/c1-7-8-4-5-9(6-8)10(7,2)3/h8-9H,1,4-6H2,2-3H3",CRPUJAZIXJMDBK-UHFFFAOYSA-N,CC1(C)C2CCC(C2)C1=C,-4.47154042780,0.01975427065,2,G3,136.23800,2.99870,43.75200,10,0,0,0,0,56,0,2,2,2,0.00,63.32246471816,2.33676775271,176.47733175671
A-871,2-[2-(4-methylcyclohex-3-en-1-yl)propyl]cyclopentan-1-one,"InChI=1S/C15H24O/c1-11-6-8-13(9-7-11)12(2)10-14-4-3-5-15(14)16/h6,12-14H,3-5,7-10H2,1-2H3",KNHGOYVXAHUDHP-UHFFFAOYSA-N,CC(CC1CCCC1=O)C2CCC(=CC2)C,-4.68036704860,0.00000000000,1,G1,220.35600,4.12820,67.22700,16,1,0,1,3,90,0,1,2,2,17.07,99.30869739018,1.83441812639,289.81007680238
A-874,methyl decanoate,"InChI=1S/C11H22O2/c1-3-4-5-6-7-8-9-10-11(12)13-2/h3-10H2,1-2H3",YRHYCMZPEVDGFQ-UHFFFAOYSA-N,CCCCCCCCCC(=O)OC,-4.62674852250,0.19700143601,3,G5,186.29500,3.30010,54.62600,13,2,0,2,8,78,0,0,0,0,26.30,81.66373950135,2.95109644301,121.25868639908
A-875,dipraseodymium(3+) ion tricarbonate,"InChI=1S/3CH2O3.2Pr/c3*2-1(3)4;;/h3*(H2,2,3,4);;/q;;;2*+3/p-6",XIRHLBQGEYXJKG-UHFFFAOYSA-H,[Pr+3].[Pr+3].[O-]C([O-])=O.[O-]C([O-])=O.[O-]C([O-])=O,-5.02202702420,0.25767986095,2,G3,461.84000,-7.34100,16.18800,14,9,0,11,0,72,0,0,0,0,189.57,143.64072516318,-0.00000002700,115.60673143260
A-876,"1,1,3,3-tetrabutylurea","InChI=1S/C17H36N2O/c1-5-9-13-18(14-10-6-2)17(20)19(15-11-7-3)16-12-8-4/h5-16H2,1-4H3",SNDGLCYYBKJSOT-UHFFFAOYSA-N,CCCCN(CCCC)C(=O)N(CCCC)CCCC,-4.82059549650,0.00000000000,1,G1,284.48800,4.91080,88.17400,20,1,0,3,12,120,0,0,0,0,23.55,126.25951429863,4.53932107340,193.02989363111
A-877,Cedryl methyl ether,"InChI=1S/C16H28O/c1-11-6-7-12-14(2,3)13-10-16(11,12)9-8-15(13,4)17-5/h11-13H,6-10H2,1-5H3/t11-,12+,13-,15-,16?/m1/s1",HRGPYCVTDOECMG-FETWPZQLSA-N,CO[C@]1(C)CCC23C[C@@H]1C(C)(C)[C@@H]2CC[C@H]3C,-4.74017717950,0.00000000000,1,G1,236.39900,4.26390,70.85700,17,1,0,1,1,98,0,3,3,3,9.23,106.30943451270,2.04310288758,334.41688017891
A-883,cyclododecyl methyl ether,"InChI=1S/C13H26O/c1-14-13-11-9-7-5-3-2-4-6-8-10-12-13/h13H,2-12H2,1H3",WDSOYUINLRIGNV-UHFFFAOYSA-N,COC1CCCCCCCCCCC1,-4.68359038290,0.00000000000,1,G1,198.35000,4.30610,61.58400,14,1,0,1,1,84,0,1,1,1,9.23,89.22627047657,2.16617210811,110.40397044123
A-884,"2-ethoxy-2,6,6-trimethyl-9-methylidenebicyclo[3.3.1]nonane","InChI=1S/C15H26O/c1-6-16-15(5)10-8-12-11(2)13(15)7-9-14(12,3)4/h12-13H,2,6-10H2,1,3-5H3",LUNAXRIJWWBQTE-UHFFFAOYSA-N,CCOC1(C)CCC2C(=C)C1CCC2(C)C,-4.73429624540,0.00000000000,1,G1,222.37200,4.18400,68.40000,16,1,0,1,2,92,0,2,2,2,9.23,100.26072051965,2.22628349536,291.81007680238
A-885,"N,N-diethyl[(diethylcarbamothioyl)disulfanyl]carbothioamide","InChI=1S/C10H20N2S4/c1-5-11(6-2)9(13)15-16-10(14)12(7-3)8-4/h5-8H2,1-4H3",AUZONCFQVSMFAP-UHFFFAOYSA-N,CCN(CC)C(=S)SSC(=S)N(CC)CC,-4.86037754930,0.93018877465,2,G2,296.55200,3.62120,86.22000,16,4,0,6,4,94,0,0,0,0,6.48,117.90714002930,4.04178440597,200.85891908574
A-886,"6-amino-2-(2,4-dimethylphenyl)-1H-benzo[de]isoquinoline-1,3(2H)-dione","InChI=1S/C20H16N2O2/c1-11-6-9-17(12(2)10-11)22-19(23)14-5-3-4-13-16(21)8-7-15(18(13)14)20(22)24/h3-10H,21H2,1-2H3",FQLZTPSAVDHUKS-UHFFFAOYSA-N,Cc1ccc(N2C(=O)c3cccc4c(N)ccc(C2=O)c34)c(C)c1,-4.89165553330,0.00000000000,1,G1,316.36000,3.83944,95.41640,24,3,1,4,1,118,3,0,1,4,63.40,139.04686772866,2.00510131200,1014.98345011414
A-887,"(4-tert-butyl-2,6-dimethylphenyl)acetonitrile","InChI=1S/C14H19N/c1-10-8-12(14(3,4)5)9-11(2)13(10)6-7-15/h8-9H,6H2,1-5H3",ZUXNULGHCOXCFL-UHFFFAOYSA-N,Cc1cc(cc(C)c1CC#N)C(C)(C)C,-4.70181182950,0.00000000000,1,G1,201.31300,3.66702,63.93300,15,1,0,1,1,80,1,0,0,1,23.79,92.74351971614,3.26923047028,379.32248143175
A-888,"3,9-bis[2,4-bis(2-phenylpropan-2-yl)phenoxy]-2,4,8,10-tetraoxa-3,9-diphosphaspiro[5.5]undecane","InChI=1S/C53H58O6P2/c1-49(2,39-21-13-9-14-22-39)43-29-31-47(45(33-43)51(5,6)41-25-17-11-18-26-41)58-60-54-35-53(36-55-60)37-56-61(57-38-53)59-48-32-30-44(50(3,4)40-23-15-10-16-24-40)34-46(48)52(7,8)42-27-19-12-20-28-42/h9-34H,35-38H2,1-8H3/t53?,60-,61-",WBWXVCMXGYSMQA-DISNZCRASA-N,CC(C)(c1ccccc1)c2ccc(O[P@]3OC[C@]4(CO3)CO[P@](OC4)Oc5ccc(cc5C(C)(C)c6ccccc6)C(C)(C)c7ccccc7)c(c2)C(C)(C)c8ccccc8,-7.23197342630,0.00000000000,1,G1,852.98900,13.98180,248.50100,61,6,0,8,12,316,6,2,2,8,55.38,365.10989147505,0.97082414601,2210.51297338987
A-889,Naphthalimide,"InChI=1S/C12H7NO2/c14-11-8-5-1-3-7-4-2-6-9(10(7)8)12(15)13-11/h1-6H,(H,13,14,15)",XJHABGPPCLHLLV-UHFFFAOYSA-N,O=C1NC(=O)c2cccc3cccc1c23,-4.69283150290,0.00000000000,1,G1,197.19300,1.72340,55.74470,15,2,1,3,0,72,2,0,1,3,46.17,85.71002711019,2.55969030905,552.84365060318
A-890,dibutylstannanone,"InChI=1S/2C4H9.O.Sn/c2*1-3-4-2;;/h2*1,3-4H2,2H3;;",JGFBRKRYDCGYKD-UHFFFAOYSA-N,CCCC[Sn](=O)CCCC,-4.79403818300,0.09775990545,2,G3,248.94200,3.00860,45.87050,10,1,0,2,6,60,0,0,0,0,17.07,71.32403354751,3.08634842624,81.25838096618
A-891,dibutyltin bis(2-ethylhexanoate),"InChI=1S/2C8H16O2.2C4H9.Sn/c2*1-3-5-6-7(4-2)8(9)10;2*1-3-4-2;/h2*7H,3-6H2,1-2H3,(H,9,10);2*1,3-4H2,2H3;/q;;;;+2/p-2",GPDWNEFHGANACG-UHFFFAOYSA-L,CCCC[Sn++]CCCC.CCCCC(CC)C([O-])=O.CCCCC(CC)C([O-])=O,-5.11340432570,1.27203402215,2,G2,519.35500,5.03280,121.81000,29,4,0,5,16,172,0,0,0,0,80.26,191.40109574496,-0.00000035032,315.77236071905
A-893,octahydro-2H-1-benzopyran-2-one,"InChI=1S/C9H14O2/c10-9-6-5-7-3-1-2-4-8(7)11-9/h7-8H,1-6H2",MSFLYJIWLHSQLG-UHFFFAOYSA-N,O=C1CCC2CCCCC2O1,-0.58656032560,0.00000000000,1,G1,154.20900,1.88220,41.07200,11,2,0,2,0,62,0,2,2,2,26.30,66.92219296549,1.98256799841,164.94566830289
A-895,methyl 4-methylbenzoate,"InChI=1S/C9H10O2/c1-7-3-5-8(6-4-7)9(10)11-2/h3-6H,1-2H3",QSSJZLPUHJDYKF-UHFFFAOYSA-N,COC(=O)c1ccc(C)cc1,-2.57672035240,0.02243331043,3,G5,150.17700,1.78162,42.51850,11,2,0,2,1,58,1,0,0,1,26.30,65.80129679224,2.89534803599,248.77017257091