ID,Name,InChI,InChIKey,SMILES,Solubility,SD,Ocurrences,Group,MolWt,MolLogP,MolMR,HeavyAtomCount,NumHAcceptors,NumHDonors,NumHeteroatoms,NumRotatableBonds,NumValenceElectrons,NumAromaticRings,NumSaturatedRings,NumAliphaticRings,RingCount,TPSA,LabuteASA,BalabanJ,BertzCT
A-75,"1-hydroxy-4-methyl-6-(2,4,4-trimethylpentyl)pyridin-2(1H)-one - 2-aminoethanol (1:1)","InChI=1S/C14H23NO2.C2H7NO/c1-10-6-12(15(17)13(16)8-10)7-11(2)9-14(3,4)5;3-1-2-4/h6,8,11,17H,7,9H2,1-5H3;4H,1-3H2",BTSZTGGZJQFALU-UHFFFAOYSA-N,CC(CC1=CC(=CC(=O)N1O)C)CC(C)(C)C.NCCO,-3.90546420350,0.49571191652,5,G5,298.42700,1.94622,85.70370,21,5,3,5,4,122,1,0,0,1,88.48,126.92513579986,0.00000088529,473.39092478010
A-76,pentacalcium hydroxide triphosphate,"InChI=1S/5Ca.3H3O4P.H2O/c;;;;;3*1-5(2,3)4;/h;;;;;3*(H3,1,2,3,4);1H2/q5*+2;;;;/p-10",XYJRXVWERLGGKC-UHFFFAOYSA-D,[OH-].[Ca++].[Ca++].[Ca++].[Ca++].[Ca++].[O-][P]([O-])([O-])=O.[O-][P]([O-])([O-])=O.[O-][P]([O-])([O-])=O,-4.14190089640,1.04388831145,2,G2,502.30700,-10.55460,53.52530,21,13,0,21,0,104,0,0,0,0,288.75,268.24250041822,-0.00000001286,213.83899476132
A-77,"6H-dibenzo[c,e][1,2]oxaphosphinine 6-oxide",InChI=1S/C12H8O2P/c13-15-12-8-4-2-6-10(12)9-5-1-3-7-11(9)14-15/h1-8H/q+1,DWSWCPPGLRSPIT-UHFFFAOYSA-N,O=[P+]1Oc2ccccc2c3ccccc13,-1.77962313490,0.00000000000,1,G1,215.16800,4.32840,61.32650,15,2,0,3,0,72,3,0,0,3,30.21,86.97796986821,2.70224634525,700.37600692819
A-79,ethenyl benzoate,"InChI=1S/C9H8O2/c1-2-11-9(10)8-6-4-3-5-7-8/h2-7H,1H2",KOZCZZVUFDCZGG-UHFFFAOYSA-N,C=COC(=O)c1ccccc1,-2.62295919520,0.00000000000,1,G1,148.16100,1.98690,42.05450,11,2,0,2,2,56,1,0,0,1,26.30,65.11169376005,2.76660516918,251.52506007307
A-80,methyl 4-tert-butylbenzoate,"InChI=1S/C12H16O2/c1-12(2,3)10-7-5-9(6-8-10)11(13)14-4/h5-8H,1-4H3",UPIJOAFHOIWPLT-UHFFFAOYSA-N,COC(=O)c1ccc(cc1)C(C)(C)C,-3.73981637580,0.00000000000,1,G1,192.25800,2.77070,56.48150,14,2,0,2,1,76,1,0,0,1,26.30,84.89612313543,2.94998404152,317.17012029969
A-81,"2,2-dimethyl-3-(3-methylphenyl)propan-1-ol","InChI=1S/C12H18O/c1-10-5-4-6-11(7-10)8-12(2,3)9-13/h4-7,13H,8-9H2,1-3H3",FYMOBFDUZIDKMI-UHFFFAOYSA-N,Cc1cccc(CC(C)(C)CO)c1,-2.82653546850,0.00000000000,1,G1,178.27500,2.55602,55.74980,13,1,1,1,3,72,1,0,0,1,20.23,80.41528955807,2.74315150207,276.20789509358
A-83,"(2E)-3,7-dimethylocta-2,6-dien-1-yl acetate","InChI=1S/C12H20O2/c1-10(2)6-5-7-11(3)8-9-14-12(4)13/h6,8H,5,7,9H2,1-4H3/b11-8-",HIGQPQRQIQDZMP-FLIBITNWSA-N,CC(=O)OC\C=C(C)/CCC=C(C)C,-3.75495321570,0.00000000000,1,G1,196.29000,3.24220,59.05500,14,2,0,2,5,80,0,0,0,0,26.30,86.64947555137,3.67044852713,232.70628424349
A-86,"2-{6,6-dimethylbicyclo[3.1.1]hept-2-en-2-yl}ethan-1-ol","InChI=1S/C11H18O/c1-11(2)9-4-3-8(5-6-12)10(11)7-9/h3,9-10,12H,4-7H2,1-2H3/t9-,10-/m0/s1",ROKSAUSPJGWCSM-UWVGGRQHSA-N,CC1(C)[C@H]2CC=C(CCO)[C@@H]1C2,-2.69599980370,0.00000000000,1,G1,166.26400,2.36120,49.78080,12,1,1,1,2,68,0,1,3,3,20.23,74.48164058475,2.12734382952,215.04400223826
A-89,"3,3,5-trimethylcyclohexanone","InChI=1S/C9H16O/c1-7-4-8(10)6-9(2,3)5-7/h7H,4-6H2,1-3H3",POSWICCRDBKBMH-UHFFFAOYSA-N,CC1CC(=O)CC(C)(C)C1,-1.64714146320,0.00000000000,1,G1,140.22600,2.40170,41.80300,10,1,0,1,0,58,0,1,1,1,17.07,62.81447888952,2.59465616162,146.80725598782
A-91,2-(2-phenylphenoxy)ethyl prop-2-enoate,"InChI=1S/C17H16O3/c1-2-17(18)20-13-12-19-16-11-7-6-10-15(16)14-8-4-3-5-9-14/h2-11H,1,12-13H2",VAZQKPWSBFZARZ-UHFFFAOYSA-N,C=CC(=O)OCCOc1ccccc1c2ccccc2,-3.95151884180,0.00000000000,1,G1,268.31200,3.46160,78.52900,20,3,0,3,6,102,2,0,0,2,35.53,118.01221742442,2.01827716040,575.79880484057
A-94,"3-[(3-sulfanylpropanoyl)oxy]-2,2-bis({[(3-sulfanylpropanoyl)oxy]methyl})propyl 3-sulfanylpropanoate","InChI=1S/C17H28O8S4/c18-13(1-5-26)22-9-17(10-23-14(19)2-6-27,11-24-15(20)3-7-28)12-25-16(21)4-8-29/h26-29H,1-12H2",JOBBTVPTPXRUBP-UHFFFAOYSA-N,SCCC(=O)OCC(COC(=O)CCS)(COC(=O)CCS)COC(=O)CCS,-5.12316874810,0.01824453597,3,G5,488.67100,1.42520,120.14900,29,12,4,12,16,168,0,0,0,0,105.20,192.29886082998,5.35411766528,436.05250551036
A-100,"4-[2-(4-hydroxy-3,5-dimethylphenyl)propan-2-yl]-2,6-dimethylphenol","InChI=1S/C19H24O2/c1-11-7-15(8-12(2)17(11)20)19(5,6)16-9-13(3)18(21)14(4)10-16/h7-10,20-21H,1-6H3",ODJUOZPKKHIEOZ-UHFFFAOYSA-N,Cc1cc(cc(C)c1O)C(C)(C)c2cc(C)c(O)c(C)c2,-4.95286880280,0.00000000000,1,G1,284.39900,4.65738,87.28960,21,2,2,2,2,112,2,0,0,2,40.46,126.63155963073,2.61490702938,591.19792097016
A-101,"1,3-bis(octadecanoyloxy)propan-2-yl octadecanoate","InChI=1S/C57H110O6/c1-4-7-10-13-16-19-22-25-28-31-34-37-40-43-46-49-55(58)61-52-54(63-57(60)51-48-45-42-39-36-33-30-27-24-21-18-15-12-9-6-3)53-62-56(59)50-47-44-41-38-35-32-29-26-23-20-17-14-11-8-5-2/h54H,4-53H2,1-3H3",DCXXMTOCNZCJGO-UHFFFAOYSA-N,CCCCCCCCCCCCCCCCCC(=O)OCC(COC(=O)CCCCCCCCCCCCCCCCC)OC(=O)CCCCCCCCCCCCCCCCC,-5.47300057990,0.00000000000,1,G1,891.50100,18.76910,270.43600,63,6,0,6,53,374,0,0,0,0,78.90,393.00121142269,4.29616981822,885.58322748186
A-106,"ethyl 3,5,5-trimethylhexanoate","InChI=1S/C11H22O2/c1-6-13-10(12)7-9(2)8-11(3,4)5/h9H,6-8H2,1-5H3",NMZMQQBBZRGLPJ-UHFFFAOYSA-N,CCOC(=O)CC(C)CC(C)(C)C,-3.82304316760,0.02539285600,3,G5,186.29500,3.01190,54.48600,13,2,0,2,4,78,0,0,0,0,26.30,81.66373950135,3.74027541996,155.96343903735
A-109,calcium oxosilanebis(olate),InChI=1S/Ca.O3Si/c;1-4(2)3/q+2;-2,OYACROKNLOSFPA-UHFFFAOYSA-N,[Ca++].[O-][Si]([O-])=O,-2.65008699410,0.68679033140,2,G2,116.16100,-3.25840,12.19450,5,3,0,5,0,24,0,0,0,0,63.19,60.52965303305,0.00000000000,29.87430298093
A-111,5-Ethyl-2-methylpyridine,"InChI=1S/C8H11N/c1-3-8-5-4-7(2)9-6-8/h4-6H,3H2,1-2H3",NTSLROIKFLNUIJ-UHFFFAOYSA-N,CCc1ccc(C)nc1,-1.00426045360,0.00000000000,1,G1,121.18300,1.95242,38.35200,9,1,0,1,1,48,1,0,0,1,12.89,55.74587744363,2.88155587765,176.26405299160
A-113,"(1R,2S,5R)-5-methyl-2-(propan-2-yl)cyclohexyl (2S)-2-hydroxypropanoate","InChI=1S/C13H24O3/c1-8(2)11-6-5-9(3)7-12(11)16-13(15)10(4)14/h8-12,14H,5-7H2,1-4H3/t9-,10+,11+,12-/m1/s1",UJNOLBSYLSYIBM-NOOOWODRSA-N,CC(C)[C@@H]1CC[C@@H](C)C[C@H]1OC(=O)[C@H](C)O,-2.97998720460,0.00000000000,1,G1,228.33200,2.37120,62.90380,16,3,1,3,3,94,0,1,1,1,46.53,98.18202632881,2.60734578881,235.33220565074
A-114,Prednisolone,"InChI=1S/C21H28O5/c1-19-7-5-13(23)9-12(19)3-4-14-15-6-8-21(26,17(25)11-22)20(15,2)10-16(24)18(14)19/h5,7,9,14-16,18,22,24,26H,3-4,6,8,10-11H2,1-2H3/t14-,15-,16-,18+,19-,20-,21-/m0/s1",OIGNJSKKLXVSLS-VWUMJDOOSA-N,C[C@]12C[C@H](O)[C@H]3[C@@H](CCC4=CC(=O)C=C[C@]34C)[C@@H]1CC[C@]2(O)C(=O)CO,-3.17844712890,0.01504651895,2,G3,360.45000,1.55760,95.04840,26,5,3,5,2,142,0,3,4,4,94.83,153.34130809395,1.74728144799,723.91308150155
A-115,"disodium 5-methyl-2-({4-[(4-methyl-2-sulfonatophenyl)amino]-9,10-dioxo-9,10-dihydroanthracen-1-yl}amino)benzene-1-sulfonate","InChI=1S/C28H22N2O8S2.2Na/c1-15-7-9-19(23(13-15)39(33,34)35)29-21-11-12-22(30-20-10-8-16(2)14-24(20)40(36,37)38)26-25(21)27(31)17-5-3-4-6-18(17)28(26)32;;/h3-14,29-30H,1-2H3,(H,33,34,35)(H,36,37,38);;/q;2*+1/p-2",FPAYXBWMYIMERV-UHFFFAOYSA-L,[Na+].[Na+].Cc1ccc(Nc2ccc(Nc3ccc(C)cc3[S]([O-])(=O)=O)c4C(=O)c5ccccc5C(=O)c24)c(c1)[S]([O-])(=O)=O,-1.42703125710,0.00000000000,1,G1,622.58800,-1.61776,144.59880,42,10,2,14,6,204,4,0,1,5,172.60,286.56346287456,0.00000242000,1836.59533364737
A-116,dialuminium(3+) ion dimolybdenum nonaoxidandiide,InChI=1S/2Al.2Mo.9O/q2*+3;;;9*-2,CTVFHFFURJHNAT-UHFFFAOYSA-N,[O--].[O--].[O--].[O--].[O--].[O--].[O--].[O--].[O--].[Al+3].[Al+3].[Mo].[Mo],-4.22915299220,0.00000000000,1,G1,389.83500,-1.83580,17.68650,13,0,0,13,0,84,0,0,0,0,256.50,125.21846078317,0.00000000000,15.57639132285
A-117,2-phenoxyethyl 2-methylprop-2-enoate,"InChI=1S/C12H14O3/c1-10(2)12(13)15-9-8-14-11-6-4-3-5-7-11/h3-7H,1,8-9H2,2H3",CEXQWAAGPPNOQF-UHFFFAOYSA-N,CC(=C)C(=O)OCCOc1ccccc1,-2.95264716980,0.00000000000,1,G1,206.24100,2.18470,57.71000,15,3,0,3,5,80,1,0,0,1,35.53,89.32006533275,2.17724986616,329.98028532934
A-118,"5-{[2-(2-butoxyethoxy)ethoxy]methyl}-6-propyl-2H-1,3-benzodioxole","InChI=1S/C19H30O5/c1-3-5-7-20-8-9-21-10-11-22-14-17-13-19-18(23-15-24-19)12-16(17)6-4-2/h12-13H,3-11,14-15H2,1-2H3",FIPWRIJSWJWJAI-UHFFFAOYSA-N,CCCCOCCOCCOCc1cc2OCOc2cc1CCC,-4.15108891830,0.12909208292,3,G5,338.44400,3.71770,92.76200,24,5,0,5,13,136,1,0,1,2,46.15,144.73754560066,1.63217421021,475.07010591802
A-119,fluoromethane,InChI=1S/CH3F/c1-2/h1H3,NBVXSUQYWXRMNV-UHFFFAOYSA-N,CF,-0.17587437650,0.00000000000,1,G1,34.03300,0.58570,7.03200,2,0,0,1,0,14,0,0,0,0,0.00,12.90478643076,1.00000000000,2.00000000000
A-122,(2-phenoxyethoxy)benzene,"InChI=1S/C14H14O2/c1-3-7-13(8-4-1)15-11-12-16-14-9-5-2-6-10-14/h1-10H,11-12H2",XCSGHNKDXGYELG-UHFFFAOYSA-N,C(COc1ccccc1)Oc2ccccc2,-3.98852652750,0.00000000000,1,G1,214.26400,3.14440,63.87400,16,2,0,2,5,82,2,0,0,2,18.46,95.44547201337,1.69821747096,356.09522259647
A-123,"4-[(4-amino-2-chloro-3,5-diethylphenyl)methyl]-3-chloro-2,6-diethylaniline","InChI=1S/C21H28Cl2N2/c1-5-12-9-14(18(22)16(7-3)20(12)24)11-15-10-13(6-2)21(25)17(8-4)19(15)23/h9-10H,5-8,11,24-25H2,1-4H3",VIOMIGLBMQVNLY-UHFFFAOYSA-N,CCc1cc(Cc2cc(CC)c(N)c(CC)c2Cl)c(Cl)c(CC)c1N,-7.27803871280,0.00000000000,1,G1,379.37500,5.99820,112.04680,25,2,2,4,6,136,2,0,0,2,52.04,161.05929020292,2.60526632305,716.94112147385
A-124,"sodium 1-amino-9,10-dioxo-4-({2,4,6-trimethyl-3-[(phenylformamido)methyl]phenyl}amino)-9,10-dihydroanthracene-2-sulfonate","InChI=1S/C31H27N3O6S.Na/c1-16-13-17(2)28(18(3)22(16)15-33-31(37)19-9-5-4-6-10-19)34-23-14-24(41(38,39)40)27(32)26-25(23)29(35)20-11-7-8-12-21(20)30(26)36;/h4-14,34H,15,32H2,1-3H3,(H,33,37)(H,38,39,40);/q;+1/p-1",OFHDOLUPOLKDSG-UHFFFAOYSA-M,[Na+].Cc1cc(C)c(Nc2cc(c(N)c3C(=O)c4ccccc4C(=O)c23)[S]([O-])(=O)=O)c(C)c1CNC(=O)c5ccccc5,-1.43960512130,0.00000000000,1,G1,591.62100,1.55116,153.67250,42,8,3,11,6,208,4,0,1,5,158.49,265.11766638205,0.00000404999,1889.08118358649
A-125,2-propylpentanoic acid,"InChI=1S/C8H16O2/c1-3-5-7(6-4-2)8(9)10/h7H,3-6H2,1-2H3,(H,9,10)",NIJJYAXOARWZEE-UHFFFAOYSA-N,CCCC(CCC)C(O)=O,-1.85797742720,0.00000000000,1,G1,144.21400,2.28740,40.94180,10,1,1,2,5,60,0,0,0,0,37.30,62.24960168085,3.60957805268,93.43071362054
A-127,zinc di(benzothiazol-2-yl) disulphide,"InChI=1S/2C7H5NS2.Zn/c2*9-7-8-5-3-1-2-4-6(5)10-7;/h2*1-4H,(H,8,9);/q;;+2/p-2",PGNWIWKMXVDXHP-UHFFFAOYSA-L,[Zn++].[S-]c1sc2ccccc2n1.[S-]c3sc4ccccc4n3,-4.28589580400,0.00000000000,1,G1,397.89000,4.40170,90.50200,21,6,0,7,0,100,4,0,0,4,25.78,153.77114141464,0.00000014667,718.06729083313
A-128,2-(2-{[2-(oxiran-2-ylmethoxy)phenyl]methyl}phenoxymethyl)oxirane; 2-(2-{[4-(oxiran-2-ylmethoxy)phenyl]methyl}phenoxymethyl)oxirane; 2-(4-{[4-(oxiran-2-ylmethoxy)phenyl]methyl}phenoxymethyl)oxirane,"InChI=1S/C6H6O.C3H5ClO.CH2O/c7-6-4-2-1-3-5-6;4-1-3-2-5-3;1-2/h1-5,7H;3H,1-2H2;1H2",IRJIVOLJTYKLEH-UHFFFAOYSA-N,Oc1ccccc1.ClCC2CO2.C=O,-4.03475676110,0.00000000000,1,G1,216.66400,1.83130,55.68780,14,3,1,4,1,78,1,1,1,2,49.83,88.26957003924,0.00000021306,224.06853695945
A-129,"3-[(2E)-oct-2-en-1-yl]oxolane-2,5-dione; 3-[(2Z)-oct-2-en-1-yl]oxolane-2,5-dione","InChI=1S/C12H18O3/c1-2-3-4-5-6-7-8-10-9-11(13)15-12(10)14/h7-8,10H,2-6,9H2,1H3/b8-7+",FLISWPFVWWWNNP-BQYQJAHWSA-N,CCCCCC/C=C/C1CC(=O)OC1=O,-4.02175351520,0.00000000000,1,G1,210.27300,2.60270,57.10500,15,3,0,3,6,84,0,1,1,1,43.37,90.49476953007,2.14861490627,255.59284654014
A-134,2-(chloromethyl)oxirane; 4-[2-(4-hydroxyphenyl)propan-2-yl]phenol; 2-methylprop-2-enoic acid,"InChI=1S/C15H16O2.C4H6O2.C3H5ClO/c1-15(2,11-3-7-13(16)8-4-11)12-5-9-14(17)10-6-12;1-3(2)4(5)6;4-1-3-2-5-3/h3-10,16-17H,1-2H3;1H2,2H3,(H,5,6);3H,1-2H2",HXMNCTCIJUKTBN-UHFFFAOYSA-N,CC(=C)C(O)=O.CC(C)(c1ccc(O)cc1)c2ccc(O)cc2.ClCC3CO3,-5.22928285200,0.00000000000,1,G1,406.90600,4.69480,111.25140,28,4,3,6,4,152,2,1,1,3,90.29,170.41518140389,0.00000029134,703.01905103418
A-135,"(1S,5S)-2,6,6-trimethylbicyclo[3.1.1]hept-2-ene","InChI=1S/C10H16/c1-7-4-5-8-6-9(7)10(8,2)3/h4,8-9H,5-6H2,1-3H3/t8-,9-/m0/s1",GRWFGVWFFZKLTI-IUCAKERBSA-N,CC1=CC[C@H]2C[C@@H]1C2(C)C,-4.77257042350,0.07314439990,3,G5,136.23800,2.99870,43.75200,10,0,0,0,0,56,0,1,3,3,0.00,63.32246471816,2.29662657972,186.21499122004
A-139,trimethyl[(trimethylsilyl)oxy]silane,"InChI=1S/C6H18OSi2/c1-8(2,3)7-9(4,5)6/h1-6H3",UQEAIHBTYFGYIE-UHFFFAOYSA-N,C[Si](C)(C)O[Si](C)(C)C,-4.90950521600,0.16624739200,2,G3,162.38100,2.67280,47.77700,9,1,0,3,2,56,0,0,0,0,9.23,60.68613837789,3.74641793125,76.21143267167
A-140,"2,3,3,3-tetrafluoroprop-1-ene","InChI=1S/C3H2F4/c1-2(4)3(5,6)7/h1H2",FXRLMCRCYDHQFW-UHFFFAOYSA-N,FC(=C)C(F)(F)F,-2.75995736670,0.00000000000,1,G1,114.04100,2.03190,16.30300,7,0,0,4,0,42,0,0,0,0,0.00,37.44167383614,3.79111841709,79.42592196522
A-141,2H-chromen-2-one,InChI=1S/C9H6O2/c10-9-6-5-7-3-1-2-4-8(7)11-9/h1-6H,ZYGHJZDHTFUPRJ-UHFFFAOYSA-N,O=C1Oc2ccccc2C=C1,-1.88603036070,0.64050710078,3,G4,146.14500,1.79300,42.48400,11,2,0,2,0,54,2,0,0,2,30.21,63.07940657528,2.93535079797,428.51082087611
A-142,1-methyl-4-(prop-1-en-2-yl)cyclohex-1-ene,"InChI=1S/C10H16/c1-8(2)10-6-4-9(3)5-7-10/h4,10H,1,5-7H2,2-3H3",XMGQYMWWDOXHJM-UHFFFAOYSA-N,CC(=C)C1CCC(=CC1)C,-3.84649652950,0.73058900637,9,G4,136.23800,3.30890,45.91200,10,0,0,0,1,56,0,0,1,1,0.00,63.63869283950,2.49541222686,162.87712379549
A-143,"hydrogen [4-[[4-(diethylamino)-o-tolyl][4-[ethyl(3-sulphonatobenzyl)amino]phenyl]methylene]cyclohexa-2,5-dien-1-ylidene](ethyl)(3-sulphonatobenzyl)ammonium, sodium salt","InChI=1S/C42H47N3O6S2.Na/c1-6-43(7-2)38-24-25-41(31(5)26-38)42(34-16-20-36(21-17-34)44(8-3)29-32-12-10-14-39(27-32)52(46,47)48)35-18-22-37(23-19-35)45(9-4)30-33-13-11-15-40(28-33)53(49,50)51;/h10-28H,6-9,29-30H2,1-5H3,(H-,46,47,48,49,50,51);/q;+1/p-1",IXNUVCLIRYUKFB-UHFFFAOYSA-M,[Na+].CCN(CC)c1ccc([C+](c2ccc(cc2)N(CC)Cc3cccc(c3)[S]([O-])(=O)=O)c4ccc(cc4)N(CC)Cc5cccc(c5)[S]([O-])(=O)=O)c(C)c1,-0.62297793030,0.00000000000,1,G1,775.96900,4.72561,210.43140,54,9,0,12,16,278,5,0,0,5,124.12,342.98925796992,0.00000649798,2098.80264524192
A-144,tungsten(4+) ion disulfanediide,InChI=1S/2S.W,ITRNXVSDJBHYNJ-UHFFFAOYSA-N,S=[W]=S,-4.13913364250,0.00000000000,1,G1,247.97400,1.29390,15.18200,3,2,0,3,0,18,0,0,0,0,0.00,34.65223127887,3.26598632371,23.77443751082
A-145,disodium 5-[(E)-2-(5-hydroxy-3-methyl-1-phenyl-1H-pyrazol-4-yl)diazen-1-yl]-2-{4-[(E)-2-(5-hydroxy-3-methyl-1-phenyl-1H-pyrazol-4-yl)diazen-1-yl]-2-sulfonatophenyl}benzene-1-sulfonate,"InChI=1S/C32H26N8O8S2.2Na/c1-19-29(31(41)39(37-19)23-9-5-3-6-10-23)35-33-21-13-15-25(27(17-21)49(43,44)45)26-16-14-22(18-28(26)50(46,47)48)34-36-30-20(2)38-40(32(30)42)24-11-7-4-8-12-24;;/h3-18,29-30H,1-2H3,(H,43,44,45)(H,46,47,48);;/q;2*+1/p-2",ZRYQXQUPWQNYSX-UHFFFAOYSA-L,[Na+].[Na+].CC1=NN(C(=O)C1N=Nc2ccc(c3ccc(cc3[S]([O-])(=O)=O)N=NC4C(=NN(C4=O)c5ccccc5)C)c(c2)[S]([O-])(=O)=O)c6ccccc6,-1.64278118100,0.00000000000,1,G1,758.70600,-1.08020,178.48640,52,14,0,20,9,254,4,0,2,6,229.18,342.06181585297,0.00000302499,2210.60038642798
A-146,"(1R,2R,4R)-1,7,7-trimethylbicyclo[2.2.1]heptan-2-yl acetate (1S,2S,4S)-1,7,7-trimethylbicyclo[2.2.1]heptan-2-yl acetate","InChI=1S/C12H20O2/c1-8(13)14-10-7-9-5-6-12(10,4)11(9,2)3/h9-10H,5-7H2,1-4H3/t9-,10+,12-/m1/s1",KGEKLUUHTZCSIP-JFGNBEQYSA-N,CC(=O)O[C@H]1C[C@H]2CC[C@@]1(C)C2(C)C,-3.08877819240,0.00000000000,1,G1,196.29000,2.76430,54.78300,14,2,0,2,1,80,0,2,2,2,26.30,86.01701930868,2.22554026726,269.49529453538
A-147,dioxido-oxosilane; lead(+2) cation,InChI=1S/O3Si.Pb/c1-4(2)3;/q-2;+2,AFPIWWDEGJLLCL-UHFFFAOYSA-N,[Pb++].[O-][Si]([O-])=O,-6.61971160030,0.00000000000,1,G1,283.28300,-3.25840,12.19450,5,3,0,5,0,26,0,0,0,0,63.19,50.69643661139,0.00000000000,29.87430298093
A-148,2-methyl-1-phenylpropan-2-yl butanoate,"InChI=1S/C14H20O2/c1-4-8-13(15)16-14(2,3)11-12-9-6-5-7-10-12/h5-7,9-10H,4,8,11H2,1-3H3",SHSGYHAHMQLYRB-UHFFFAOYSA-N,CCCC(=O)OC(C)(C)Cc1ccccc1,-4.13594261260,0.00000000000,1,G1,220.31200,3.35100,65.22500,16,2,0,2,5,88,1,0,0,1,26.30,97.62600736422,2.54492039188,327.84839499722
A-150,"disodium 4,4'-[(2,4-dihydroxy-1,3-phenylene)didiazene-2,1-diyl]dinaphthalene-1-sulfonate","InChI=1S/C26H18N4O8S2.2Na/c31-22-12-9-21(29-27-19-10-13-23(39(33,34)35)17-7-3-1-5-15(17)19)26(32)25(22)30-28-20-11-14-24(40(36,37)38)18-8-4-2-6-16(18)20;;/h1-14,27-28H,(H,33,34,35)(H,36,37,38);;/q;2*+1/p-2/b29-21+,30-25+;;",UTIACSXEVKXHPT-XALLQCHJSA-L,[Na+].[Na+].[O-][S](=O)(=O)c1ccc(N\N=C\2C=CC(=O)C(=N/Nc3ccc(c4ccccc34)[S]([O-])(=O)=O)\C2=O)c5ccccc15,-2.60384114410,0.00000000000,1,G1,622.54800,-4.73920,143.54780,42,12,2,16,6,202,5,0,0,5,197.32,282.14667744009,0.00000242000,2288.25125847050
A-153,1-[(1-propoxypropan-2-yl)oxy]propan-2-ol,"InChI=1S/C9H20O3/c1-4-5-11-7-9(3)12-6-8(2)10/h8-10H,4-7H2,1-3H3",WEZPLQKRXDBPEP-UHFFFAOYSA-N,CCCOCC(C)OCC(C)O,-0.07005265080,0.00000000000,1,G1,176.25600,1.19890,48.20480,12,3,1,3,7,74,0,0,0,0,38.69,74.68011215421,3.15317758625,93.77443751082
A-156,"5-isocyanato-1-(isocyanatomethyl)-1,3,3-trimethylcyclohexane","InChI=1S/C12H18N2O2/c1-11(2)4-10(14-9-16)5-12(3,6-11)7-13-8-15/h10H,4-7H2,1-3H3",NIMLQBUJDJZYEJ-UHFFFAOYSA-N,CC1(C)CC(CC(C)(CN=C=O)C1)N=C=O,-4.17082475930,0.00000000000,1,G1,222.28800,2.24300,60.63700,16,4,0,4,3,88,0,1,1,1,58.86,95.86147230447,2.85445578096,352.03026117749
A-158,"octadec-9-enoic acid - N-(2-aminoethyl)ethane-1,2-diamine (1:1)","InChI=1S/C18H34O2.C4H13N3/c1-2-3-4-5-6-7-8-9-10-11-12-13-14-15-16-17-18(19)20;5-1-3-7-4-2-6/h9-10H,2-8,11-17H2,1H3,(H,19,20);7H,1-6H2/b10-9-;",PYBPYUAKCDQFCS-KVVVOXFISA-N,CCCCCCCC\C=C/CCCCCCCC(O)=O.NCCNCCN,-4.41008743660,0.39867024414,4,G5,385.63700,4.60190,118.06630,27,4,4,5,19,162,0,0,0,0,101.37,167.90466298138,0.00000000000,305.93301518274
A-162,1-[2-[[4-[(2-chloro-4-nitrophenyl)azo]phenyl]ethylamino]ethyl]pyridinium acetate,"InChI=1S/C21H21ClN5O2.C2H4O2/c1-2-26(15-14-25-12-4-3-5-13-25)18-8-6-17(7-9-18)23-24-21-11-10-19(27(28)29)16-20(21)22;1-2(3)4/h3-13,16H,2,14-15H2,1H3;1H3,(H,3,4)/q+1;/p-1",WQIDMVKHMHGZPN-UHFFFAOYSA-M,CCN(CC[n+]1ccccc1)c2ccc(cc2)N=Nc3ccc(cc3Cl)[N+]([O-])=O.CC([O-])=O,-1.52189008490,0.00000000000,1,G1,469.92900,4.23380,123.92940,33,7,0,10,8,172,3,0,0,3,115.11,196.28930415539,0.00000089006,1087.76570790618
A-167,diphenyl carbonate,InChI=1S/C13H10O3/c14-13(15-11-7-3-1-4-8-11)16-12-9-5-2-6-10-12/h1-10H,ROORDVPLFPIABK-UHFFFAOYSA-N,O=C(Oc1ccccc1)Oc2ccccc2,-4.21691666270,0.00000000000,1,G1,214.22000,3.26440,59.53600,16,3,0,3,2,80,2,0,0,2,35.53,93.24205199902,1.95219414779,407.61862712357
A-168,vinyl 2-ethylhexanoate,"InChI=1S/C10H18O2/c1-4-7-8-9(5-2)10(11)12-6-3/h6,9H,3-5,7-8H2,1-2H3",IGBZOHMCHDADGY-UHFFFAOYSA-N,CCCCC(CC)C(=O)OC=C,-4.15191097640,0.00000000000,1,G1,170.25200,2.88950,49.59500,12,2,0,2,6,70,0,0,0,0,26.30,74.60919435477,3.78019242432,140.77400566229
A-169,2-methyl-N-[(2-methylprop-2-enamido)methyl]prop-2-enamide,"InChI=1S/C9H14N2O2/c1-6(2)8(12)10-5-11-9(13)7(3)4/h1,3,5H2,2,4H3,(H,10,12)(H,11,13)",TURITJIWSQEMDB-UHFFFAOYSA-N,CC(=C)C(=O)NCNC(=O)C(C)=C,-1.18923675550,0.00000000000,1,G1,182.22300,0.32850,50.78040,13,2,2,4,4,72,0,0,0,0,58.20,77.70235044594,3.68937296188,230.34031643968
A-170,"(1Z,5Z)-cycloocta-1,5-diene","InChI=1S/C8H12/c1-2-4-6-8-7-5-3-1/h1-2,7-8H,3-6H2/b2-1-,8-7-",VYXHVRARDIDEHS-QGTKBVGQSA-N,C\1C\C=C/CC\C=C1,-2.96597717330,0.00000000000,1,G1,108.18400,2.67280,36.74800,8,0,0,0,0,44,0,0,1,1,0.00,50.90880861071,2.28571428571,72.60593781761
A-171,(3-isocyanatopropyl)trimethoxysilane,"InChI=1S/C7H15NO4Si/c1-10-13(11-2,12-3)6-4-5-8-7-9/h4-6H2,1-3H3",FMGBDYLOANULLW-UHFFFAOYSA-N,CO[Si](CCCN=C=O)(OC)OC,-3.25698100120,0.00000000000,1,G1,205.28600,0.59040,49.19350,13,5,0,6,7,76,0,0,0,0,57.12,79.07735682074,3.87342864168,169.06669317044
A-172,(3-chloropropyl)triethoxysilane,"InChI=1S/C9H21ClO3Si/c1-4-11-14(12-5-2,13-6-3)9-7-8-10/h4-9H2,1-3H3",KSCAZPYHLGGNPZ-UHFFFAOYSA-N,CCO[Si](CCCCl)(OCC)OCC,-3.32858344970,0.00000000000,1,G1,240.80300,2.66370,60.77600,14,3,0,5,9,86,0,0,0,0,27.69,93.05366269051,4.21067044341,118.20592425326
A-176,"1,2-dibutyl benzene-1,2-dicarboxylate","InChI=1S/C16H22O4/c1-3-5-11-19-15(17)13-9-7-8-10-14(13)16(18)20-12-6-4-2/h7-10H,3-6,11-12H2,1-2H3",DOIRQSBPFJWKBE-UHFFFAOYSA-N,CCCCOC(=O)c1ccccc1C(=O)OCCCC,-4.38768325380,0.05729726359,5,G5,278.34800,3.60040,76.82300,20,4,0,4,8,110,1,0,0,1,52.60,119.63095892256,2.71239133750,398.85794216891