ID,Name,InChI,InChIKey,SMILES,Solubility,SD,Ocurrences,Group,MolWt,MolLogP,MolMR,HeavyAtomCount,NumHAcceptors,NumHDonors,NumHeteroatoms,NumRotatableBonds,NumValenceElectrons,NumAromaticRings,NumSaturatedRings,NumAliphaticRings,RingCount,TPSA,LabuteASA,BalabanJ,BertzCT
A-1306,"2-ethyl-3-hydroxy-2-[2-(6-methoxy-3,4-dihydronaphthalen-1(2H)-ylidene)ethyl]cyclopentanone","InChI=1S/C20H26O3/c1-3-20(18(21)9-10-19(20)22)12-11-14-5-4-6-15-13-16(23-2)7-8-17(14)15/h7-8,11,13,18,21H,3-6,9-10,12H2,1-2H3",ZXYHLOFRRMDJAQ-UHFFFAOYSA-N,CCC1(CC=C2CCCc3cc(OC)ccc23)C(O)CCC1=O,-4.12276872360,0.00000000000,1,G1,314.42500,3.92520,91.49780,23,3,1,3,4,124,1,1,2,3,46.53,137.90862846355,1.88366866585,631.77399877793
A-1308,butylbenzene,"InChI=1S/C10H14/c1-3-9(2)10-7-5-4-6-8-10/h4-9H,3H2,1-2H3",ZJMWRROPUADPEA-UHFFFAOYSA-N,CCC(C)c1ccccc1,-3.75860784840,0.26432387847,7,G5,134.22200,3.20010,45.14800,10,0,0,0,2,54,1,0,0,1,0.00,62.89117157708,2.74697818853,176.48961548078
A-1309,"sodium 1-amino-4-[(3-acetamidophenyl)amino]-9,10-dioxo-9,10-dihydroanthracene-2-sulfonate","InChI=1S/C22H17N3O6S.Na/c1-11(26)24-12-5-4-6-13(9-12)25-16-10-17(32(29,30)31)20(23)19-18(16)21(27)14-7-2-3-8-15(14)22(19)28;/h2-10,25H,23H2,1H3,(H,24,26)(H,29,30,31);/q;+1/p-1",MIBVDSFVCOIWCC-UHFFFAOYSA-M,[Na+].CC(=O)Nc1cccc(Nc2cc(c(N)c3C(=O)c4ccccc4C(=O)c23)[S]([O-])(=O)=O)c1,-4.30791086140,0.05483867310,2,G3,473.44200,-0.34570,116.15300,33,8,3,11,4,162,3,0,1,4,158.49,210.96574583279,0.00000306250,1436.03884995044
A-1311,1-methyl-1-(4-methylcyclohex-3-en-1-yl)ethyl acetate,"InChI=1S/C12H20O2/c1-9-5-7-11(8-6-9)12(3,4)14-10(2)13/h5,11H,6-8H2,1-4H3",IGODOXYLBBXFDW-UHFFFAOYSA-N,CC(=O)OC(C)(C)C1CCC(=CC1)C,-3.93117033900,0.00000000000,1,G1,196.29000,3.07450,56.94300,14,2,0,2,2,80,0,0,1,1,26.30,86.33324743003,2.59883000218,251.04734401698
A-1312,"3,7,11-trimethyldodeca-1,6,10-trien-3-ol,mixed isomers","InChI=1S/C15H26O/c1-6-15(5,16)12-8-11-14(4)10-7-9-13(2)3/h6,9,11,16H,1,7-8,10,12H2,2-5H3/b14-11+",FQTLCLSUCSAZDY-SDNWHVSQSA-N,CC(C)=CCC\C(C)=C\CCC(C)(O)C=C,-3.98535226610,0.10625436165,2,G3,222.37200,4.39630,72.47680,16,1,1,1,7,92,0,0,0,0,20.23,100.57386528503,3.87711380670,265.15953878327
A-1313,6-[(2-methylprop-2-enoyl)oxy]hexyl 2-methylprop-2-enoate,"InChI=1S/C14H22O4/c1-11(2)13(15)17-9-7-5-6-8-10-18-14(16)12(3)4/h1,3,5-10H2,2,4H3",SAPGBCWOQLHKKZ-UHFFFAOYSA-N,CC(=C)C(=O)OCCCCCCOC(=O)C(C)=C,-4.04366292480,0.00000000000,1,G1,254.32600,2.78540,70.01400,18,4,0,4,9,102,0,0,0,0,52.60,108.65442710972,3.31620104409,285.75568111716
A-1315,4-(trifluoromethyl)aniline,"InChI=1S/C7H6F3N/c8-7(9,10)5-1-3-6(11)4-2-5/h1-4H,11H2",ODGIMMLDVSWADK-UHFFFAOYSA-N,Nc1ccc(cc1)C(F)(F)F,-2.84733014340,0.00000000000,1,G1,161.12600,2.28760,35.85640,11,1,1,4,0,60,1,0,0,1,26.02,61.63284213968,2.99375478826,236.85775327613
A-1317,benzyltriethylazanium chloride,"InChI=1S/C13H22N.ClH/c1-4-14(5-2,6-3)12-13-10-8-7-9-11-13;/h7-11H,4-6,12H2,1-3H3;1H/q+1;/p-1",HTZCNXWZYVXIMZ-UHFFFAOYSA-M,[Cl-].CC[N+](CC)(CC)Cc1ccccc1,-0.00726566360,0.22454626555,2,G3,227.77900,0.06710,62.02940,15,0,0,2,5,86,1,0,0,1,0.00,100.10889632962,0.00000196000,246.23361737285
A-1322,disodium decanedioate,"InChI=1S/C10H18O4.2Na/c11-9(12)7-5-3-1-2-4-6-8-10(13)14;;/h1-8H2,(H,11,12)(H,13,14);;/q;2*+1/p-2",NCXUIEDQTCQZRK-UHFFFAOYSA-L,[Na+].[Na+].[O-]C(=O)CCCCCCCCC([O-])=O,-3.04106472540,1.47408418085,2,G2,246.21400,-6.38500,46.95000,16,4,0,6,9,82,0,0,0,0,80.26,140.76204100730,-0.00000084500,165.65784284662
A-1325,2-(2-butoxyethoxy)ethyl 2-methylprop-2-enoate,"InChI=1S/C12H22O4/c1-4-5-6-14-7-8-15-9-10-16-12(13)11(2)3/h2,4-10H2,1,3H3",QGTBRAFPWNISIJ-UHFFFAOYSA-N,CCCCOCCOCCOC(=O)C(C)=C,-2.01594850660,0.03094349545,2,G3,230.30400,1.93900,62.31900,16,4,0,4,10,94,0,0,0,0,44.76,97.56616904257,3.09693505735,201.19544121139
A-1327,"4-[1,1,1,3,3,3-hexafluoro-2-(4-hydroxyphenyl)propan-2-yl]phenol","InChI=1S/C15H10F6O2/c16-14(17,18)13(15(19,20)21,9-1-5-11(22)6-2-9)10-3-7-12(23)8-4-10/h1-8,22-23H",ZFVMWEVVKGLCIJ-UHFFFAOYSA-N,Oc1ccc(cc1)C(c2ccc(O)cc2)(C(F)(F)F)C(F)(F)F,-3.17950296930,0.00000000000,1,G1,336.23100,4.50850,69.10360,23,2,2,8,2,124,2,0,0,2,40.46,126.16500359070,2.86168516526,609.59866889809
A-1328,1-(naphthalen-1-yl)ethan-1-one,"InChI=1S/C12H10O/c1-9(13)11-8-4-6-10-5-2-3-7-12(10)11/h2-8H,1H3",QQLIGMASAVJVON-UHFFFAOYSA-N,CC(=O)c1cccc2ccccc12,-2.88463464880,0.00000000000,1,G1,170.21100,3.04240,53.95250,13,1,0,1,1,64,2,0,0,2,17.07,77.00447398007,2.83097565837,452.13605952871
A-1329,4-(propan-2-yl)aniline,"InChI=1S/C9H13N/c1-7(2)8-3-5-9(10)6-4-8/h3-7H,10H2,1-2H3",LRTFPLFDLJYEKT-UHFFFAOYSA-N,CC(C)c1ccc(N)cc1,-1.78583119620,0.00000000000,1,G1,135.21000,2.39220,44.94340,10,1,1,1,1,54,1,0,0,1,26.02,61.86612015970,2.89376278361,198.47318047941
A-1333,4-methoxyaniline,"InChI=1S/C7H9NO/c1-9-7-4-2-6(8)3-5-7/h2-5H,8H2,1H3",BHAAPTBBJKJZER-UHFFFAOYSA-N,COc1ccc(N)cc1,-0.74802936770,0.01010169305,2,G3,123.15500,1.27740,37.40640,9,2,1,2,1,48,1,0,0,1,35.25,54.24978116041,2.88155587765,180.61256853720
A-1334,pentan-1-ol,"InChI=1S/C5H12O/c1-2-3-4-5-6/h6H,2-5H2,1H3",AMQJEAYHLZJPGS-UHFFFAOYSA-N,CCCCCO,-0.60279963580,0.01010169305,2,G3,88.15000,1.16890,26.61080,6,1,1,1,3,38,0,0,0,0,20.23,38.99325323761,2.33909231498,15.90013452989
A-1335,2-methoxy-5-nitroaniline,"InChI=1S/C7H8N2O3/c1-12-7-3-2-5(9(10)11)4-6(7)8/h2-4H,8H2,1H3",NIPDVSLAMPAWTP-UHFFFAOYSA-N,COc1ccc(cc1N)[N+]([O-])=O,-1.88327935640,0.64086242020,2,G2,168.15200,1.18560,44.06080,12,4,1,5,2,64,1,0,0,1,78.39,68.90275688291,3.09818035005,311.51984000954
A-1336,prop-2-en-1-yl 2-methylprop-2-enoate,"InChI=1S/C7H10O2/c1-4-5-9-7(8)6(2)3/h4H,1-2,5H2,3H3",FBCQUCJYYPMKRO-UHFFFAOYSA-N,CC(=C)C(=O)OCC=C,-1.75848178710,0.00804340995,2,G3,126.15500,1.29170,35.97000,9,2,0,2,3,50,0,0,0,0,26.30,54.82476497939,3.50840512188,135.85157716109
A-1337,"1,1,2,2,3,3,4,4-octafluoro-1,4-diiodobutane","InChI=1S/C4F8I2/c5-1(6,3(9,10)13)2(7,8)4(11,12)14",JILAKKYYZPDQBE-UHFFFAOYSA-N,FC(F)(I)C(F)(F)C(F)(F)C(F)(F)I,-3.31447626200,0.00000000000,1,G1,453.83600,4.31260,47.82800,14,0,0,10,3,86,0,0,0,0,0.00,99.68203683652,5.30008207761,188.36161893477
A-1339,"2,6-di-tert-butyl-4-(hydroxymethyl)phenol","InChI=1S/C15H24O2/c1-14(2,3)11-7-10(9-16)8-12(13(11)17)15(4,5)6/h7-8,16-17H,9H2,1-6H3",HNURKXXMYARGAY-UHFFFAOYSA-N,CC(C)(C)c1cc(CO)cc(c1O)C(C)(C)C,-4.01278210420,0.00000000000,1,G1,236.35500,3.47950,71.42960,17,2,2,2,1,96,1,0,0,1,40.46,104.30434965346,3.53274622440,370.90560077356
A-1341,[2-(3-methylbutoxy)ethyl]benzene,"InChI=1S/C13H20O/c1-12(2)8-10-14-11-9-13-6-4-3-5-7-13/h3-7,12H,8-11H2,1-2H3",BHQBQWOZHYUVTL-UHFFFAOYSA-N,CC(C)CCOCCc1ccccc1,-3.93373578270,0.00000000000,1,G1,192.30200,3.29180,60.42000,14,1,0,1,6,78,1,0,0,1,9.23,87.09954314978,2.04792961933,228.25069569718
A-1343,2-hydroxynaphthalene-1-carbaldehyde,"InChI=1S/C11H8O2/c12-7-10-9-4-2-1-3-8(9)5-6-11(10)13/h1-7,13H",NTCCNERMXRIPTR-UHFFFAOYSA-N,Oc1ccc2ccccc2c1C=O,-3.89356758960,0.00000000000,1,G1,172.18300,2.35790,51.00030,13,2,1,2,1,64,2,0,0,2,37.30,75.43376561787,2.91178449201,460.59697423019
A-1345,"5-nitropyrimidine-2,4,6-triamine","InChI=1S/C4H6N6O/c5-2-1(10-11)3(6)9-4(7)8-2/h(H6,5,6,7,8,9)",XLQQJSWJHHKLOK-UHFFFAOYSA-N,Nc1nc(N)c(N=O)c(N)n1,-3.84547295070,0.00000000000,1,G1,154.13300,-0.37890,40.72420,11,7,3,7,1,58,1,0,0,1,133.27,61.58510315666,3.35732144745,273.62891172430
A-1346,"1,3-dichloroprop-1-ene","InChI=1S/C3H4Cl2/c4-2-1-3-5/h1-2H,3H2/b2-1-",UOORRWUZONOOLO-UPHRSURJSA-N,ClC\C=C/Cl,-1.70675300600,0.17379495294,4,G5,110.97100,1.97770,25.71300,5,0,0,2,1,30,0,0,0,0,0.00,41.38606467820,2.62241580799,31.87430298093
A-1347,4-[4-[[4-chloro-3-(trifluoromethyl)phenyl]carbamoylamino]phenoxy]-N-methylpyridine-2-carboxamide,"InChI=1S/C21H16ClF3N4O3/c1-26-19(30)18-11-15(8-9-27-18)32-14-5-2-12(3-6-14)28-20(31)29-13-4-7-17(22)16(10-13)21(23,24)25/h2-11H,1H3,(H,26,30)(H2,28,29,31)",MLDQJTXFUGDVEO-UHFFFAOYSA-N,CNC(=O)c1cc(Oc2ccc(NC(=O)Nc3ccc(Cl)c(c3)C(F)(F)F)cc2)ccn1,-6.66729508380,0.00000000000,1,G1,464.83100,5.54970,113.23860,32,4,3,11,5,166,3,0,0,3,92.35,185.11105638624,1.62443760012,1137.87894451270
A-1348,2-methoxy-4-(methoxymethyl)phenol,"InChI=1S/C9H12O3/c1-11-6-7-3-4-8(10)9(5-7)12-2/h3-5,10H,6H2,1-2H3",USDDPDQEVLAOBO-UHFFFAOYSA-N,COCc1ccc(O)c(OC)c1,-1.89344768140,0.00000000000,1,G1,168.19200,1.54720,45.37180,12,3,1,3,3,66,1,0,0,1,38.69,71.54755367390,2.88865101049,257.95060242336
A-1349,3-pentyloxan-4-yl acetate,"InChI=1S/C12H22O3/c1-3-4-5-6-11-9-14-8-7-12(11)15-10(2)13/h11-12H,3-9H2,1-2H3",VSRVCSJJKWDZSH-UHFFFAOYSA-N,CCCCCC1COCCC1OC(C)=O,-2.99879588830,0.00000000000,1,G1,214.30500,2.53490,58.62200,15,3,0,3,5,88,0,1,1,1,35.53,92.13639569172,2.31818498642,191.30625318002
A-1350,"4-[(E)-2-phenyldiazen-1-yl]benzene-1,3-diamine","InChI=1S/C12H12N4/c13-9-6-7-12(11(14)8-9)16-15-10-4-2-1-3-5-10/h1-8H,13-14H2",IWRVPXDHSLTIOC-UHFFFAOYSA-N,Nc1ccc(N=Nc2ccccc2)c(N)c1,-2.99766556050,0.00000000000,1,G1,212.25600,3.26640,65.88480,16,4,2,4,2,80,2,0,0,2,76.76,93.61505656408,2.24215198654,505.68213938266
A-1351,2-tert-Butyl-4-methoxyphenol,"InChI=1S/C11H16O2/c1-11(2,3)9-7-8(13-4)5-6-10(9)12/h5-7,12H,1-4H3",MRBKEAMVRSLQPH-UHFFFAOYSA-N,COc1ccc(O)c(c1)C(C)(C)C,-2.92748844170,0.00000000000,1,G1,180.24700,2.69830,53.35880,13,2,1,2,1,72,1,0,0,1,29.46,79.16389267318,3.19170267653,297.44885548395
A-1352,4-piperidin-4-ylmorpholine,"InChI=1S/C9H18N2O/c1-3-10-4-2-9(1)11-5-7-12-8-6-11/h9-10H,1-8H2",YYBXNWIRMJXEQJ-UHFFFAOYSA-N,C1CC(CCN1)N2CCOCC2,-2.90272282240,0.00000000000,1,G1,170.25600,0.07060,48.28370,12,3,1,3,1,70,0,2,2,2,24.50,74.07036671926,1.79973251914,112.49022499567
A-1354,triethoxy(2-methylpropyl)silane,"InChI=1S/C10H24O3Si/c1-6-11-14(12-7-2,13-8-3)9-10(4)5/h10H,6-9H2,1-5H3",ALVYUZIFSCKIFP-UHFFFAOYSA-N,CCO[Si](CC(C)C)(OCC)OCC,-3.01684617100,0.19591870485,2,G3,220.38500,2.69080,60.27700,14,3,0,4,8,86,0,0,0,0,27.69,89.11533857802,4.36812537963,122.30925044912
A-1355,"3,4-dihydroxy-5-nitrobenzaldehyde","InChI=1S/C7H5NO5/c9-3-4-1-5(8(12)13)7(11)6(10)2-4/h1-3,10-11H",BBFJODMCHICIAA-UHFFFAOYSA-N,Oc1cc(C=O)cc(c1O)[N+]([O-])=O,-1.93783391100,0.00000000000,1,G1,183.11900,0.81850,41.81350,13,5,2,6,2,68,1,0,0,1,100.67,72.19931056083,3.40886592397,373.39080559772
A-1357,ethyl 2-methyl-2-phenylpropanoate,"InChI=1S/C12H16O2/c1-4-14-11(13)12(2,3)10-8-6-5-7-9-10/h5-9H,4H2,1-3H3",OFYSAFPKXXTYLU-UHFFFAOYSA-N,CCOC(=O)C(C)(C)c1ccccc1,-3.04583831700,0.00000000000,1,G1,192.25800,2.52730,56.10100,14,2,0,2,3,76,1,0,0,1,26.30,84.89612313543,2.90157870241,301.35758485260
A-1360,4-methyl-2-nitroaniline,"InChI=1S/C7H8N2O2/c1-5-2-3-6(8)7(4-5)9(10)11/h2-4H,8H2,1H3",DLURHXYXQYMPLT-UHFFFAOYSA-N,Cc1ccc(N)c(c1)[N+]([O-])=O,-1.86006122500,0.00000000000,1,G1,152.15300,1.48542,42.24580,11,3,1,4,1,58,1,0,0,1,69.16,63.78921165341,3.23220887031,296.49208977639
A-1361,dithioxomethane,InChI=1S/CS2/c2-1-3,QGJOPFRUJISHPQ-UHFFFAOYSA-N,S=C=S,-1.55942209630,0.13050191006,5,G5,76.14500,1.01810,20.18900,3,2,0,2,0,16,0,0,0,0,0.00,29.45681152224,3.26598632371,23.77443751082
A-1362,methyl benzoate,"InChI=1S/C8H8O2/c1-10-8(9)7-5-3-2-4-6-7/h2-6H,1H3",QPJVMBTYPHYUOC-UHFFFAOYSA-N,COC(=O)c1ccccc1,-1.81179835090,0.01910082455,2,G3,136.15000,1.47320,37.78150,10,2,0,2,1,52,1,0,0,1,26.30,59.43635467784,2.85262792882,215.95901745055
A-1363,"1,1-dimethoxyoctane","InChI=1S/C10H22O2/c1-4-5-6-7-8-9-10(11-2)12-3/h10H,4-9H2,1-3H3",BZOOCKAFKVYAOZ-UHFFFAOYSA-N,CCCCCCCC(OC)OC,-2.91800541870,0.00000000000,1,G1,174.28400,2.96580,51.18200,12,2,0,2,8,74,0,0,0,0,18.46,76.25082051641,3.06239901672,79.90776466980
A-1364,"1,4,7,10-tetrazacyclododecane","InChI=1S/C8H20N4/c1-2-10-5-6-12-8-7-11-4-3-9-1/h9-12H,1-8H2",QBPPRVHXOZRESW-UHFFFAOYSA-N,C1CNCCNCCNCCN1,-0.03102041560,0.00000000000,1,G1,172.27600,-1.64160,51.47880,12,4,4,4,0,72,0,1,1,1,48.12,74.48746340951,2.00000000000,54.03910001731
A-1366,undec-10-enal,"InChI=1S/C11H20O/c1-2-3-4-5-6-7-8-9-10-11-12/h2,11H,1,3-10H2",OFHHDSQXFXLTKC-UHFFFAOYSA-N,C=CCCCCCCCCC=O,-3.89318620000,0.00000000000,1,G1,168.28000,3.49210,53.19700,12,1,0,1,9,70,0,0,0,0,17.07,75.86059123966,2.80732110537,93.57174002126
A-1367,"1-methyl 1,2,2,6,6-pentamethylpiperidin-4-yl decanedioate bis(1,2,2,6,6-pentamethylpiperidin-4-yl) decanedioate","InChI=1S/C30H56N2O4.C21H39NO4/c1-27(2)19-23(20-28(3,4)31(27)9)35-25(33)17-15-13-11-12-14-16-18-26(34)36-24-21-29(5,6)32(10)30(7,8)22-24;1-20(2)15-17(16-21(3,4)22(20)5)26-19(24)14-12-10-8-7-9-11-13-18(23)25-6/h23-24H,11-22H2,1-10H3;17H,7-16H2,1-6H3",YHEPZZFDBQOSSN-UHFFFAOYSA-N,COC(=O)CCCCCCCCC(=O)OC1CC(C)(C)N(C)C(C)(C)C1.CN2C(C)(C)CC(CC2(C)C)OC(=O)CCCCCCCCC(=O)OC3CC(C)(C)N(C)C(C)(C)C3,-4.61122123450,0.07088890205,2,G3,878.33400,10.97120,250.99300,62,11,0,11,21,362,0,3,3,3,114.92,379.35446476941,0.00000045051,1288.80305267462
A-1370,2-[4-(2-methylpropyl)phenyl]propanoic acid,"InChI=1S/C13H18O2/c1-9(2)8-11-4-6-12(7-5-11)10(3)13(14)15/h4-7,9-10H,8H2,1-3H3,(H,14,15)",HEFNNWSXXWATRW-UHFFFAOYSA-N,CC(C)Cc1ccc(cc1)C(C)C(O)=O,-3.99224835470,0.31775086363,4,G5,206.28500,3.07320,61.03480,15,1,1,2,4,82,1,0,0,1,37.30,90.94175377251,2.75903713327,324.89411900216
A-1371,sodium perchlorate,"InChI=1S/ClHO4.Na/c2-1(3,4)5;/h(H,2,3,4,5);/q;+1/p-1",BAZAXWOYCMUHIX-UHFFFAOYSA-M,[Na+].[O-][Cl](=O)(=O)=O,-1.76652849560,0.00000000000,1,G1,122.43900,-7.75200,0.00000,6,4,0,6,0,32,0,0,0,0,92.24,58.42530181190,0.00000000000,23.01955000865
A-1376,"N-ethyl-N'-isopropyl-6-(methylsulfanyl)-1,3,5-triazine-2,4-diamine","InChI=1S/C9H17N5S/c1-5-10-7-12-8(11-6(2)3)14-9(13-7)15-4/h6H,5H2,1-4H3,(H2,10,11,12,13,14)",RQVYBGPQFYCBGX-UHFFFAOYSA-N,CCNc1nc(NC(C)C)nc(SC)n1,-3.04703995720,0.01653465539,3,G5,227.33700,1.84560,64.53040,15,6,2,6,5,84,1,0,0,1,62.73,94.50283414130,2.89174703245,315.37105540416
A-1377,1-(3-methoxyphenyl)ethan-1-one,"InChI=1S/C9H10O2/c1-7(10)8-4-3-5-9(6-8)11-2/h3-6H,1-2H3",BAYUSCHCCGXLAY-UHFFFAOYSA-N,COc1cccc(c1)C(C)=O,-1.86910738650,0.07214519880,2,G3,150.17700,1.89780,42.99850,11,2,0,2,2,58,1,0,0,1,26.30,65.80129679224,3.00588921891,266.02017257091
A-1381,1H-benzimidazole,"InChI=1S/C7H6N2/c1-2-4-7-6(3-1)8-5-9-7/h1-5H,(H,8,9)",HYZJCKYKOHLVJF-UHFFFAOYSA-N,[nH]1cnc2ccccc12,-1.76919723300,0.00000000000,1,G1,118.13900,1.56290,36.09370,9,1,1,2,0,44,2,0,0,2,28.68,52.54187605319,2.95465979029,280.89393676634
A-1382,cyanuric acid,"InChI=1S/C3H3N3O3/c7-1-4-2(8)6-3(9)5-1/h(H3,4,5,6,7,8,9)",ZFSLODLOARCGLH-UHFFFAOYSA-N,O=C1NC(=O)NC(=O)N1,-1.80764607630,0.22351771301,3,G5,129.07500,-2.24850,28.30410,9,3,3,6,0,48,1,0,0,1,98.58,47.57491336247,3.71800925969,276.80372979139
A-1383,"1-(3-chloropropyl)-2,3-dihydro-1H-1,3-benzodiazol-2-one","InChI=1S/C10H11ClN2O/c11-6-3-7-13-9-5-2-1-4-8(9)12-10(13)14/h1-2,4-5H,3,6-7H2,(H,12,14)",GUMPYDGUYXOYML-UHFFFAOYSA-N,ClCCCN1C(=O)Nc2ccccc12,-3.02039426870,0.00000000000,1,G1,210.66400,1.95850,57.89570,14,2,1,4,3,74,2,0,0,2,37.79,86.31146220990,2.51048045826,486.07280974080
A-1385,2-chloropyridine,InChI=1S/C5H4ClN/c6-5-3-1-2-4-7-5/h1-4H,OKDGRDCXVWSXDC-UHFFFAOYSA-N,Clc1ccccn1,-0.75414566860,0.00000000000,1,G1,113.54700,1.73500,29.24700,7,1,0,2,0,36,1,0,0,1,12.89,46.95431732733,3.02146530972,138.00750422530
A-1387,"2,5-dichlorophenol","InChI=1S/C6H4Cl2O/c7-4-1-2-5(8)6(9)3-4/h1-3,9H",RANCECPPZPIPNO-UHFFFAOYSA-N,Oc1cc(Cl)ccc1Cl,-1.91116560180,0.00000000000,1,G1,163.00300,2.69900,38.12680,9,1,1,3,0,48,1,0,0,1,20.23,62.83216932546,3.17167803044,222.29788705001
A-1388,dicopper(2+) ion disodium 2-[(E)-2-(2-oxido-5-sulfamoylphenyl)diazen-1-yl]-6-({5-oxido-6-[(E)-2-(2-oxido-5-sulfamoylphenyl)diazen-1-yl]-7-sulfonatonaphthalen-2-yl}amino)-3-sulfonatonaphthalen-1-olate,"InChI=1S/C32H25N7O14S4.2Cu.2Na/c33-54(44,45)19-3-7-25(40)23(13-19)36-38-29-27(56(48,49)50)11-15-9-17(1-5-21(15)31(29)42)35-18-2-6-22-16(10-18)12-28(57(51,52)53)30(32(22)43)39-37-24-14-20(55(34,46)47)4-8-26(24)41;;;;/h1-14,35,40-43H,(H2,33,44,45)(H2,34,46,47)(H,48,49,50)(H,51,52,53);;;;/q;2*+2;2*+1/p-6",OHHRMPATRJSFJN-UHFFFAOYSA-H,[Na+].[Na+].[Cu++].[Cu++].N[S](=O)(=O)c1ccc([O-])c(c1)N=Nc2c([O-])c3ccc(Nc4ccc5c([O-])c(N=Nc6cc(ccc6[O-])[S](N)(=O)=O)c(cc5c4)[S]([O-])(=O)=O)cc3cc2[S]([O-])(=O)=O,-2.71048927680,0.00000000000,1,G1,1026.87900,-4.03220,188.87150,61,19,3,29,10,314,6,0,0,6,388.43,411.06301267133,0.00000320333,3023.76360445455
A-1390,"1,10-bis(2-ethylhexyl) decanedioate","InChI=1S/C26H50O4/c1-5-9-17-23(7-3)21-29-25(27)19-15-13-11-12-14-16-20-26(28)30-22-24(8-4)18-10-6-2/h23-24H,5-22H2,1-4H3",VJHINFRRDQUWOJ-UHFFFAOYSA-N,CCCCC(CC)COC(=O)CCCCCCCCC(=O)OCC(CC)CCCC,-3.32907432640,0.00000000000,1,G1,426.68200,7.62640,125.46600,30,4,0,4,21,178,0,0,0,0,52.60,186.41293854685,3.55574663144,369.83777621830
A-1391,4-amino-5-chloro-N-[2-(diethylamino)ethyl]-2-methoxybenzamide,"InChI=1S/C14H22ClN3O2.ClH/c1-4-18(5-2)7-6-17-14(19)10-8-11(15)12(16)9-13(10)20-3;/h8-9H,4-7,16H2,1-3H3,(H,17,19);1H",RVFUNJWWXKCWNS-UHFFFAOYSA-N,[H+].[Cl-].CCN(CC)CCNC(=O)c1cc(Cl)c(N)cc1OC,-3.22564908760,0.00000000000,1,G1,336.26300,-0.88110,83.64960,21,4,2,7,7,120,1,0,0,1,67.59,138.21675176397,0.00000000000,471.64632606705
A-1392,arsine,InChI=1S/AsH2/h1H2,WLQSSCFYCXIQDZ-UHFFFAOYSA-N,[As],-2.57357936640,0.76249522004,3,G4,74.92200,-0.38080,5.75400,1,0,0,1,0,5,0,0,0,0,0.00,18.80469397845,0.00000000000,0.00000000000
A-1397,Spironolactone intermediate,"InChI=1S/C22H30O3/c1-20-9-5-15(23)13-14(20)3-4-16-17(20)6-10-21(2)18(16)7-11-22(21)12-8-19(24)25-22/h13,16-18H,3-12H2,1-2H3/t16-,17+,18+,20+,21+,22-/m1/s1",UWBICEKKOYXZRG-WNHSNXHDSA-N,C[C@]12CCC(=O)C=C1CC[C@@H]3[C@@H]2CC[C@@]4(C)[C@H]3CC[C@@]45CCC(=O)O5,-4.22500377930,0.00000000000,1,G1,342.47900,4.59410,94.76700,25,3,0,3,0,136,0,4,5,5,43.37,150.12086605992,1.49034032633,678.75981706698
A-1399,"2,2-bis({[(2-methylprop-2-enoyl)oxy]methyl})butyl 2-methylprop-2-enoate","InChI=1S/C18H26O6/c1-8-18(9-22-15(19)12(2)3,10-23-16(20)13(4)5)11-24-17(21)14(6)7/h2,4,6,8-11H2,1,3,5,7H3",OKKRPWIIYQTPQF-UHFFFAOYSA-N,CCC(COC(=O)C(C)=C)(COC(=O)C(C)=C)COC(=O)C(C)=C,-4.22623429690,0.09463285155,2,G3,338.40000,2.74070,90.04300,24,6,0,6,10,134,0,0,0,0,78.90,142.69965986467,5.10651254208,469.63403967569
A-1400,3-methyl-4-propan-2-ylphenol,"InChI=1S/C10H14O/c1-7(2)10-5-4-9(11)6-8(10)3/h4-7,11H,1-3H3",IJALWSVNUBBQRA-UHFFFAOYSA-N,CC(C)c1ccc(O)cc1C,-2.85451135400,0.00000000000,1,G1,150.22100,2.82402,46.93280,11,1,1,1,1,60,1,0,0,1,20.23,67.68540532928,3.09271975838,251.04973178598
A-1401,1-Isopropyl-2-methoxy-4-methylcyclohexane,"InChI=1S/C11H22O/c1-8(2)10-6-5-9(3)7-11(10)12-4/h8-11H,5-7H2,1-4H3",JDGJLPHFRJNJMN-UHFFFAOYSA-N,COC1CC(C)CCC1C(C)C,-3.93017445150,0.00000000000,1,G1,170.29600,3.09360,52.14000,12,1,0,1,2,72,0,1,1,1,9.23,76.49638624777,2.50118098437,130.96580220364
A-1402,"disodium [2,7-dibromo-9-(2-carboxylatophenyl)-6-oxido-3-oxo-3H-xanthen-5-yl]mercurol","InChI=1S/C24H12Br2O5.Hg.2Na/c1-2-3-6-14-22(28)18(26)10-16-21(12-7-4-5-8-13(12)24(29)30)15-9-17(25)19(27)11-20(15)31-23(14)16;;;/h1-5,7-11,28H,(H,29,30);;;/q;;2*+1/p-2",QLVIXIXZJAKNOS-UHFFFAOYSA-L,[Na+].[Na+].[O-]C(=O)c1ccccc1C2=C3C=C(Br)C(=O)C=C3Oc4c2cc(Br)c([O-])c4C5=CC=C[Hg]5,-4.59368306550,0.00000000000,1,G1,784.71700,-1.51440,120.83550,34,5,0,10,3,154,2,0,3,5,93.40,267.47897641518,0.00000162000,1544.96532007487
A-1404,"3,7,7-trimethylbicyclo[4.1.0]hept-3-ene","InChI=1S/C10H16/c1-7-4-5-8-9(6-7)10(8,2)3/h4,8-9H,5-6H2,1-3H3",BQOFWKZOCNGFEC-UHFFFAOYSA-N,CC1=CCC2C(C1)C2(C)C,-4.67040527050,0.38752079043,3,G5,136.23800,2.99870,43.75200,10,0,0,0,0,56,0,1,2,2,0.00,63.32246471816,2.13014422521,186.21499122004
A-1405,(4Z)-cyclopentadec-4-en-1-one,"InChI=1S/C15H26O/c16-15-13-11-9-7-5-3-1-2-4-6-8-10-12-14-15/h7,9H,1-6,8,10-14H2/b9-7-",JIYIHILAGIZIMD-CLFYSBASSA-N,O=C1CCCCCCCCCC\C=C/CC1,-4.88318711310,0.00000000000,1,G1,222.37200,4.80650,69.55100,16,1,0,1,0,92,0,0,1,1,17.07,100.31452854371,2.20253187110,205.48049104449
A-1406,oxozinc,InChI=1S/O.Zn,XLOMVQKBTHCTTD-UHFFFAOYSA-N,O=[Zn],-4.44816771460,0.00000000000,1,G1,81.38900,-0.12130,0.68650,2,1,0,2,0,8,0,0,0,0,17.07,22.60496136211,2.00000000000,2.00000000000
A-1407,ditolyl ether,"InChI=1S/C14H14O/c1-11-7-3-5-9-13(11)15-14-10-6-4-8-12(14)2/h3-10H,1-2H3",CYXMOAZSOPXQOD-UHFFFAOYSA-N,Cc1ccccc1Oc2ccccc2C,-4.84392771430,0.00000000000,1,G1,198.26500,4.09574,62.43200,15,1,0,1,2,76,2,0,0,2,9.23,90.33192678386,2.30218436048,416.90080908049