ID,Name,InChI,InChIKey,SMILES,Solubility,SD,Ocurrences,Group,MolWt,MolLogP,MolMR,HeavyAtomCount,NumHAcceptors,NumHDonors,NumHeteroatoms,NumRotatableBonds,NumValenceElectrons,NumAromaticRings,NumSaturatedRings,NumAliphaticRings,RingCount,TPSA,LabuteASA,BalabanJ,BertzCT
A-3714,(2H)chloroform,InChI=1S/CHCl3/c2-1(3)4/h1H/i1D,HEDRZPFGACZZDS-MICDWDOJSA-N,ClC(Cl)(Cl)[2H],-1.41781130500,0.00000000000,1,G1,120.38410,1.98640,21.34700,4,0,0,3,0,26,0,0,0,0,0.00,41.05402020864,3.02371578407,22.36452797660
A-3716,"4-amino-3,6-dichloropyridine-2-carboxylic acid","InChI=1S/C6H4Cl2N2O2/c7-3-1-2(9)4(8)5(10-3)6(11)12/h1H,(H2,9,10)(H,11,12)",NIXXQNOQHKNPEJ-UHFFFAOYSA-N,Nc1cc(Cl)nc(C(O)=O)c1Cl,-0.00425005180,0.00729099995,2,G3,207.01600,1.66880,45.62870,12,3,2,6,1,64,1,0,0,1,76.21,77.91817221786,3.37385901087,340.56512465051
A-3720,"2,2'-({4-[(2-hydroxyethyl)amino]-3-nitrophenyl}imino)diethanol","InChI=1S/C12H19N3O5/c16-6-3-13-11-2-1-10(9-12(11)15(19)20)14(4-7-17)5-8-18/h1-2,9,13,16-18H,3-8H2",MIWUTEVJIISHCP-UHFFFAOYSA-N,OCCNc1ccc(cc1[N+]([O-])=O)N(CCO)CCO,-1.79538557160,0.00000000000,1,G1,285.30000,-0.21000,75.05650,20,7,4,8,9,112,1,0,0,1,119.10,115.96642863878,3.03467422937,435.10101282974
A-3721,aluminium(3+) ion potassium tetrafluoride,InChI=1S/Al.FH.K/h;1H;/q+3;;+1/p-1,YPYRDLOVFOAQIR-UHFFFAOYSA-M,[F-].[Al+3].[K+],-1.26990107200,0.00000000000,1,G1,85.07800,-6.37280,5.75400,3,0,0,3,0,8,0,0,0,0,0.00,71.89321841165,0.00000000000,4.75488750216
A-3723,tributoxyalumane,"InChI=1S/3C4H9O.Al/c3*1-2-3-4-5;/h3*2-4H2,1H3;/q3*-1;+3",MYWQGROTKMBNKN-UHFFFAOYSA-N,[Al+3].CCCC[O-].CCCC[O-].CCCC[O-],-1.73733547580,0.10670854722,3,G5,246.32700,0.05960,65.07900,16,3,0,4,6,96,0,0,0,0,69.18,112.02149084183,-0.00000006545,53.01955000865
A-3725,"2,4-dichlorophenol","InChI=1S/C6H4Cl2O/c7-4-1-2-6(9)5(8)3-4/h1-3,9H",HFZWRUODUSTPEG-UHFFFAOYSA-N,Oc1ccc(Cl)cc1Cl,-1.55898308370,0.01849178310,2,G3,163.00300,2.69900,38.12680,9,1,1,3,0,48,1,0,0,1,20.23,62.83216932546,3.17167803044,222.29788705001
A-3730,tetrasodium 8-[[4-[(4-amino-3-sulphonatophenyl)azo]-6-sulphonatonaphthyl]azo]-5-[[6-(benzoylamino)-1-hydroxy-3-sulphonato-2-naphthyl]azo]naphthalene-2-sulphonate,"InChI=1S/C43H30N8O14S4.4Na/c44-34-13-7-26(20-39(34)68(60,61)62)46-47-37-16-14-35(30-11-8-27(21-32(30)37)66(54,55)56)48-49-38-17-15-36(31-12-9-28(22-33(31)38)67(57,58)59)50-51-41-40(69(63,64)65)19-24-18-25(6-10-29(24)42(41)52)45-43(53)23-4-2-1-3-5-23;;;;/h1-22,50H,44H2,(H,45,53)(H,54,55,56)(H,57,58,59)(H,60,61,62)(H,63,64,65);;;;/q;4*+1/p-4/b47-46?,49-48?,51-41+;;;;",WSKMZXPHHJCCDK-HTWUECFASA-J,[Na+].[Na+].[Na+].[Na+].Nc1ccc(cc1[S]([O-])(=O)=O)N=Nc2ccc(N=Nc3ccc(N\N=C/4C(=O)c5ccc(NC(=O)c6ccccc6)cc5C=C4[S]([O-])(=O)=O)c7ccc(cc37)[S]([O-])(=O)=O)c8ccc(cc28)[S]([O-])(=O)=O,-2.39359535840,0.33408378215,2,G3,1098.95100,-5.06290,244.89160,73,21,3,30,12,350,7,0,1,8,374.82,503.84220138389,0.00000288800,3980.64036711537
A-3733,methyl 3-methylbut-2-enoate,"InChI=1S/C6H10O2/c1-5(2)4-6(7)8-3/h4H,1-3H3",FZIBCCGGICGWBP-UHFFFAOYSA-N,COC(=O)C=C(C)C,-1.41400041120,0.00000000000,1,G1,114.14400,1.12560,31.44700,8,2,0,2,1,46,0,0,0,0,26.30,49.14942589718,3.70164543123,109.69694286393
A-3735,"Benzoic acid, 2-hydroxy-5-[[4-[[4-[[8-hydroxy-7-[[4-[(8-hydroxy-3,6-disulfo-1-naphthalenyl)azo]-2-methoxy-5-methylphenyl]azo]-3,6-disulfo-1-naphthalenyl]amino]-6-(phenylamino)-1,3,5-triazin-2-yl]amino]phenyl]azo]-, pentasodium salt","InChI=1S/C50H38N12O18S4.5Na/c1-24-14-36(41(80-2)23-35(24)59-61-38-21-32(82(71,72)73)15-25-16-33(83(74,75)76)22-40(64)43(25)38)60-62-45-42(84(77,78)79)18-26-17-31(81(68,69)70)20-37(44(26)46(45)65)53-50-55-48(51-27-6-4-3-5-7-27)54-49(56-50)52-28-8-10-29(11-9-28)57-58-30-12-13-39(63)34(19-30)47(66)67;;;;;/h3-23,63-65H,1-2H3,(H,66,67)(H,68,69,70)(H,71,72,73)(H,74,75,76)(H,77,78,79)(H3,51,52,53,54,55,56);;;;;/q;5*+1/p-5",HTPJPKXFBLUBPI-UHFFFAOYSA-I,[Na+].[Na+].[Na+].[Na+].[Na+].COc1cc(N=Nc2cc(cc3cc(cc(O)c23)[S]([O-])(=O)=O)[S]([O-])(=O)=O)c(C)cc1N=Nc4c(O)c5c(Nc6nc(Nc7ccccc7)nc(Nc8ccc(cc8)N=Nc9ccc(O)c(c9)C([O-])=O)n6)cc(cc5cc4[S]([O-])(=O)=O)[S]([O-])(=O)=O,-2.48338796640,0.00000000000,1,G1,1333.09800,-6.91128,288.33380,89,30,6,39,18,430,9,0,0,9,487.77,614.91453228173,0.00000338559,4792.65916426768
A-3737,"3-(3-methyl-5-oxo-4,5-dihydro-1H-pyrazol-1-yl)benzene-1-sulfonic acid","InChI=1S/C10H10N2O4S/c1-7-5-10(13)12(11-7)8-3-2-4-9(6-8)17(14,15)16/h2-4,6H,5H2,1H3,(H,14,15,16)",VEMGKBUHUTYHHA-UHFFFAOYSA-N,CC1=NN(C(=O)C1)c2cccc(c2)[S](O)(=O)=O,-1.77182154340,0.00000000000,1,G1,254.26700,1.04590,61.46860,17,4,1,7,2,90,1,0,1,2,87.04,98.30079070994,2.44622684301,606.48684222829
A-3738,3-methylbut-2-en-1-yl acetate,"InChI=1S/C7H12O2/c1-6(2)4-5-9-7(3)8/h4H,5H2,1-3H3",XXIKYCPRDXIMQM-UHFFFAOYSA-N,CC(=O)OCC=C(C)C,-1.47432131710,0.00000000000,1,G1,128.17100,1.51570,36.06400,9,2,0,2,2,52,0,0,0,0,26.30,55.51436801158,3.30504299370,120.87784055858
A-3739,"N,N-dimethyloctanamide","InChI=1S/C10H21NO/c1-4-5-6-7-8-9-10(12)11(2)3/h4-9H2,1-3H3",VHRUBWHAOUIMDW-UHFFFAOYSA-N,CCCCCCCC(=O)N(C)C,-1.60024834090,0.00000000000,1,G1,171.28400,2.43510,52.07000,12,1,0,2,6,72,0,0,0,0,20.31,75.94508582765,3.14323750037,121.00698692804
A-3741,heptan-2-one,"InChI=1S/C7H14O/c1-3-4-5-6-7(2)8/h3-6H2,1-2H3",CATSNJVOTSVZJV-UHFFFAOYSA-N,CCCCCC(C)=O,-1.43333837050,0.01227247157,3,G5,114.18800,2.15570,34.82300,8,1,0,1,4,48,0,0,0,0,17.07,51.09042581425,2.82235455425,66.78707744334
A-3742,2-methylpentanal,"InChI=1S/C6H12O/c1-3-4-6(2)5-7/h5-6H,3-4H2,1-2H3",FTZILAQGHINQQR-UHFFFAOYSA-N,CCCC(C)C=O,-1.37744936150,0.00736162840,2,G3,100.16100,1.62150,30.13600,7,1,0,1,3,42,0,0,0,0,17.07,44.72548369986,2.98436023287,50.14170945008
A-3744,"hexahydro-2-benzofuran-1,3-dione","InChI=1S/C8H10O3/c9-7-5-3-1-2-4-6(5)8(10)11-7/h5-6H,1-4H2",MUTGBJKUEZFXGO-UHFFFAOYSA-N,O=C1OC(=O)C2CCCCC12,-1.56473649690,0.00000000000,1,G1,154.16500,0.87620,36.54700,11,3,0,3,0,60,0,2,2,2,43.37,64.71877295114,2.19469893394,187.38271028147
A-3746,"2,2-bis[(prop-2-en-1-yloxy)methyl]butan-1-ol","InChI=1S/C12H22O3/c1-4-7-14-10-12(6-3,9-13)11-15-8-5-2/h4-5,13H,1-2,6-11H2,3H3",BDKDHWOPFRTWPP-UHFFFAOYSA-N,CCC(CO)(COCC=C)COCC=C,-1.71824844710,0.00000000000,1,G1,214.30500,1.78030,61.84180,15,3,1,3,10,88,0,0,0,0,38.69,92.39573243303,4.03129140076,157.70604521880
A-3749,N-butylbutan-1-amine,"InChI=1S/C8H19N/c1-3-5-7-9-8-6-4-2/h9H,3-8H2,1-2H3",JQVDAXLFBXTEQA-UHFFFAOYSA-N,CCCCNCCCC,-1.50396544810,0.03869169658,3,G5,129.24700,2.17620,42.68570,9,1,1,1,6,56,0,0,0,0,12.03,58.84370801221,2.59508270679,37.83229392179
A-3751,"(1-methyl-1,2-ethanediyl)bis[oxy(methyl-2,1-ethanediyl)] diacrylate","InChI=1S/C15H24O6/c1-6-14(16)20-12(4)9-18-8-11(3)19-10-13(5)21-15(17)7-2/h6-7,11-13H,1-2,8-10H2,3-5H3",ZDQNWDNMNKSMHI-UHFFFAOYSA-N,CC(COCC(C)OC(=O)C=C)OCC(C)OC(=O)C=C,-1.87556909090,0.00000000000,1,G1,300.35100,1.64350,77.73500,21,6,0,6,11,120,0,0,0,0,71.06,125.24645968313,3.72598830962,352.07300514492
A-3752,(2R)-2-methyloxirane,"InChI=1S/C3H6O/c1-3-2-4-3/h3H,2H2,1H3/t3-/m1/s1",GOOHAUXETOMSMM-GSVOUGTGSA-N,C[C@@H]1CO1,0.83803338360,0.00000000000,1,G1,58.08000,0.40510,15.41400,4,1,0,1,0,24,0,1,1,1,12.53,25.57684933260,2.17109831787,22.46439344671
A-3754,2-(dibutylamino)ethan-1-ol,"InChI=1S/C10H23NO/c1-3-5-7-11(9-10-12)8-6-4-2/h12H,3-10H2,1-2H3",IWSZDQRGNFLMJS-UHFFFAOYSA-N,CCCCN(CCO)CCCC,-1.63673857140,0.00000000000,1,G1,173.30000,1.88090,53.34180,12,2,1,2,8,74,0,0,0,0,23.47,76.57779747980,3.39605451749,77.90776466980
A-3757,sodium 3-[(dimethylcarbamothioyl)sulfanyl]propane-1-sulfonate,"InChI=1S/C6H13NO3S3.Na/c1-7(2)6(11)12-4-3-5-13(8,9)10;/h3-5H2,1-2H3,(H,8,9,10);/q;+1/p-1",ALXDAYUOWUEKLS-UHFFFAOYSA-M,[Na+].CN(C)C(=S)SCCC[S]([O-])(=O)=O,0.17790359960,0.00000000000,1,G1,265.35700,-2.49460,57.92420,14,5,0,8,4,78,0,0,0,0,60.44,116.84772117534,0.00000000000,265.49529453538
A-3760,"tetrasodium 4-amino-5-hydroxy-6-[(E)-2-{2-methoxy-5-[2-(sulfonatooxy)ethanesulfonyl]phenyl}diazen-1-yl]-3-[(E)-2-{4-[2-(sulfonatooxy)ethanesulfonyl]phenyl}diazen-1-yl]naphthalene-2,7-disulfonate","InChI=1S/C27H27N5O20S6.4Na/c1-50-20-7-6-18(54(36,37)11-9-52-58(47,48)49)14-19(20)30-32-26-22(56(41,42)43)13-15-12-21(55(38,39)40)25(24(28)23(15)27(26)33)31-29-16-2-4-17(5-3-16)53(34,35)10-8-51-57(44,45)46;;;;/h2-7,12-14,30H,8-11,28H2,1H3,(H,38,39,40)(H,41,42,43)(H,44,45,46)(H,47,48,49);;;;/q;4*+1/p-4/b31-29?,32-26+;;;;",VPXBRNMQOUKIMZ-BKYDQJEUSA-J,[Na+].[Na+].[Na+].[Na+].COc1ccc(cc1N\N=C/2C(=O)c3c(N)c(N=Nc4ccc(cc4)[S](=O)(=O)CCO[S]([O-])(=O)=O)c(cc3C=C2[S]([O-])(=O)=O)[S]([O-])(=O)=O)[S](=O)(=O)CCO[S]([O-])(=O)=O,-0.41610448230,0.00000000000,1,G1,1021.85800,-12.33560,190.89600,62,25,2,35,17,316,3,0,1,4,416.97,442.67573044195,0.00000930249,2969.05923533707
A-3762,3-amino-4-methylbenzamide,"InChI=1S/C8H10N2O/c1-5-2-3-6(8(10)11)4-7(5)9/h2-4H,9H2,1H3,(H2,10,11)",VYBKAZXQKUFAHG-UHFFFAOYSA-N,Cc1ccc(cc1N)C(N)=O,-0.57673191970,0.00000000000,1,G1,150.18100,0.67612,44.10930,11,2,2,3,1,58,1,0,0,1,69.11,65.00259084236,3.15154966831,294.14357423079
A-3765,"1,3-thiazol-5-ylmethanol","InChI=1S/C4H5NOS/c6-2-4-1-5-3-7-4/h1,3,6H,2H2",WKBQQWDVVHGWDB-UHFFFAOYSA-N,OCc1scnc1,0.52573553570,0.00000000000,1,G1,115.15700,0.63540,28.03680,7,3,1,3,1,38,1,0,0,1,33.12,45.45059023745,2.76260834144,126.24573483856
A-3768,"(2S,4R)-1-acetyl-4-hydroxypyrrolidine-2-carboxylic acid","InChI=1S/C7H11NO4/c1-4(9)8-3-5(10)2-6(8)7(11)12/h5-6,10H,2-3H2,1H3,(H,11,12)/p-1/t5-,6-/m0/s1",BAPRUDZDYCKSOQ-WDSKDSINSA-M,CC(=O)N1C[C@@H](O)C[C@H]1C([O-])=O,0.34499272170,0.00000000000,1,G1,172.16000,-2.28200,36.80580,12,4,1,5,1,68,0,1,1,1,80.67,69.59441793536,2.71982238801,193.45191553287
A-3769,"5-(benzoylamino)-4-hydroxy-3-[[1-sulpho-6-[[2-(sulphooxy)ethyl]sulphonyl]-2-naphthyl]azo]naphthalene-2,7-disulphonic acid, sodium salt","InChI=1S/C29H23N3O17S5.4Na/c33-27-25-18(13-20(51(37,38)39)15-23(25)30-29(34)16-4-2-1-3-5-16)14-24(52(40,41)42)26(27)32-31-22-9-6-17-12-19(7-8-21(17)28(22)53(43,44)45)50(35,36)11-10-49-54(46,47)48;;;;/h1-9,12-15,31H,10-11H2,(H,30,34)(H,37,38,39)(H,40,41,42)(H,43,44,45)(H,46,47,48);;;;/q;4*+1/p-4/b32-26+;;;;",LWOVLHCKRPSUIB-CICQTRKRSA-J,[Na+].[Na+].[Na+].[Na+].[O-][S](=O)(=O)OCC[S](=O)(=O)c1ccc2c(ccc(N\N=C/3C(=O)c4c(NC(=O)c5ccccc5)cc(cc4C=C3[S]([O-])(=O)=O)[S]([O-])(=O)=O)c2[S]([O-])(=O)=O)c1,-0.38931494120,0.00000000000,1,G1,933.77000,-11.28270,181.47600,58,19,2,29,12,286,4,0,1,5,342.73,419.49073377018,0.00000420500,2912.15158055539
A-3771,"tetrasodium 2,2'-ethene-1,2-diylbis[5-({4-morpholin-4-yl-6-[(4-sulfonatophenyl)amino]-1,3,5-triazin-2-yl}amino)benzenesulfonate]","InChI=1S/C28H29N7O10S3.C14H17N5O4S.4Na/c1-29-21-6-4-18(24(16-21)47(39,40)41)2-3-19-5-7-22(17-25(19)48(42,43)44)31-27-32-26(33-28(34-27)35-12-14-45-15-13-35)30-20-8-10-23(11-9-20)46(36,37)38;1-10-15-13(18-14(16-10)19-6-8-23-9-7-19)17-11-2-4-12(5-3-11)24(20,21)22;;;;/h2-11,16-17,29H,12-15H2,1H3,(H,36,37,38)(H,39,40,41)(H,42,43,44)(H2,30,31,32,33,34);2-5H,6-9H2,1H3,(H,20,21,22)(H,15,16,17,18);;;;/p-4/b3-2+;;;;;",XQESDAXKAMZHMR-YWURNZKTSA-J,[Na].[Na].[Na].[Na].CNc1ccc(/C=C/c2ccc(Nc3nc(Nc4ccc(cc4)[S]([O-])(=O)=O)nc(n3)N5CCOCC5)cc2[S]([O-])(=O)=O)c(c1)[S]([O-])(=O)=O.Cc6nc(Nc7ccc(cc7)[S]([O-])(=O)=O)nc(n6)N8CCOCC8,-0.48433581050,0.00000000000,1,G1,1159.09600,1.26092,279.41460,76,26,4,34,15,386,6,2,2,8,379.20,526.83298228740,0.00000045964,3440.32736590052
A-3772,Trimethylsulfoxonium iodide,"InChI=1S/C3H9OS.HI/c1-5(2,3)4;/h1-3H3;1H/q+1;/p-1",BPLKQGGAXWRFOE-UHFFFAOYSA-M,[I-].C[S+](C)(C)=O,-0.75688443210,0.04732461750,2,G3,220.07500,-2.62070,25.82350,6,1,0,3,0,40,0,0,0,0,17.07,56.95522523880,0.00000000000,56.92878689342
A-3773,"4-methylbenzene-1,3-diamine","InChI=1S/C7H10N2/c1-5-2-3-6(8)4-7(5)9/h2-4H,8-9H2,1H3",VOZKAJLKRJDJLL-UHFFFAOYSA-N,Cc1ccc(N)cc1N,-0.50718453210,0.00000000000,1,G1,122.17100,1.15942,40.00380,9,2,2,2,0,48,1,0,0,1,52.04,54.47612662792,3.17167803044,218.15617759993
A-3774,diaminotoluene,"InChI=1S/C7H10N2/c1-5-4-6(8)2-3-7(5)9/h2-4H,8-9H2,1H3",OBCSAIDCZQSFQH-UHFFFAOYSA-N,Cc1cc(N)ccc1N,-0.50718453210,0.07630508160,2,G3,122.17100,1.15942,40.00380,9,2,2,2,0,48,1,0,0,1,52.04,54.47612662792,3.17167803044,218.15617759993
A-3775,Cobalt sulfate heptahydrate,"InChI=1S/Co.H2O4S.7H2O/c;1-5(2,3)4;;;;;;;/h;(H2,1,2,3,4);7*1H2/q+2;;;;;;;;/p-2",MEYVLGVRTYSQHI-UHFFFAOYSA-L,O.O.O.O.O.O.O.[Co++].[O-][S]([O-])(=O)=O,0.12713322960,0.00000000000,1,G1,281.10100,-7.11340,35.77120,13,4,0,13,0,95,0,0,0,0,300.76,83.69149003209,-0.00000000286,93.25868639908
A-3776,sodium (dimethylcarbamothioyl)sulfanide,"InChI=1S/C3H7NS2.Na/c1-4(2)3(5)6;/h1-2H3,(H,5,6);/q;+1/p-1",VMSRVIHUFHQIAL-UHFFFAOYSA-M,[Na+].CN(C)C([S-])=S,0.41689219240,0.00000000000,1,G1,143.21200,-2.61620,33.65000,7,2,0,4,0,36,0,0,0,0,3.24,77.15621546014,0.00000000000,63.95524697820
A-3778,tris[4-(diethylamino)phenyl]methylium acetate,"InChI=1S/C31H42N3.C2H4O2/c1-7-32(8-2)28-19-13-25(14-20-28)31(26-15-21-29(22-16-26)33(9-3)10-4)27-17-23-30(24-18-27)34(11-5)12-6;1-2(3)4/h13-24H,7-12H2,1-6H3;1H3,(H,3,4)/q+1;/p-1",CBMNJIRTNNMVJC-UHFFFAOYSA-M,CCN(CC)c1ccc(cc1)[C+](c2ccc(cc2)N(CC)CC)c3ccc(cc3)N(CC)CC.CC([O-])=O,-0.13956089790,0.00000000000,1,G1,515.74200,6.00059,161.23900,38,5,0,5,12,204,3,0,0,3,49.85,230.26081126395,0.00000118147,930.78421656276
A-3779,ammonium chloride,InChI=1S/ClH.H3N/h1H;1H3,NLXLAEXVIDQMFP-UHFFFAOYSA-N,[NH4+].[Cl-],0.84225410390,0.01302707790,2,G3,53.49200,-2.61980,5.98480,2,0,1,2,0,16,0,0,0,0,36.50,19.65732137640,0.00000000000,2.00000000000
A-3781,3-morpholin-4-yloxadiazol-3-ium-5-amine chloride,"InChI=1S/C6H11N4O2.ClH/c7-6-5-10(8-12-6)9-1-3-11-4-2-9;/h5H,1-4,7H2;1H/q+1;/p-1",ZRFWHHCXSSACAW-UHFFFAOYSA-M,[Cl-].Nc1cn(n[o+]1)N2CCOCC2,0.14719831690,0.00000000000,1,G1,206.63300,-3.68840,42.08240,13,5,1,7,1,74,1,1,1,2,67.61,81.58524587980,0.00000084500,260.89185973222
A-3786,(2Z)-4-butoxy-4-oxobut-2-enoic acid,"InChI=1S/C8H12O4/c1-2-3-6-12-8(11)5-4-7(9)10/h4-5H,2-3,6H2,1H3,(H,9,10)/b5-4-",UTOVMEACOLCUCK-PLNGDYQASA-N,CCCCOC(=O)\C=C/C(O)=O,-0.66778097940,0.00000000000,1,G1,172.18000,0.97050,42.64280,12,3,1,4,5,68,0,0,0,0,63.60,70.83506597821,3.52658408340,183.49688176536
A-3788,5-[(2-hydroxyethyl)amino]-2-methylphenol,"InChI=1S/C9H13NO2/c1-7-2-3-8(6-9(7)12)10-4-5-11/h2-3,6,10-12H,4-5H2,1H3",YGRFRBUGAPOJDU-UHFFFAOYSA-N,Cc1ccc(NCCO)cc1O,-0.65505532820,0.00000000000,1,G1,167.20800,1.10482,48.41930,12,3,3,3,3,66,1,0,0,1,52.49,71.66455915069,2.68670819908,260.70548992552
A-3789,"p-[4,5-dihydro-4-[[2-methoxy-5-methyl-4-[[2-(sulphooxy)ethyl]sulphonyl]phenyl]azo]-3-methyl-5-oxo-1H-pyrazol-1-yl]benzenesulphonic acid, sodium salt","InChI=1S/C20H22N4O11S3.2Na/c1-12-10-16(17(34-3)11-18(12)36(26,27)9-8-35-38(31,32)33)21-22-19-13(2)23-24(20(19)25)14-4-6-15(7-5-14)37(28,29)30;;/h4-7,10-11,19H,8-9H2,1-3H3,(H,28,29,30)(H,31,32,33);;/q;2*+1/p-2",VMRASBDRVJTOLR-UHFFFAOYSA-L,[Na+].[Na+].COc1cc(c(C)cc1N=NC2C(=NN(C2=O)c3ccc(cc3)[S]([O-])(=O)=O)C)[S](=O)(=O)CCO[S]([O-])(=O)=O,-0.23900392620,0.00000000000,1,G1,634.57800,-4.95878,128.73720,40,14,0,20,10,206,2,0,1,3,224.39,274.78135919040,0.00000400000,1644.87700148682
A-3791,(2S)-4-hydroxypyrrolidine-2-carboxylic acid,"InChI=1S/C5H9NO3/c7-3-1-4(5(8)9)6-2-3/h3-4,6-7H,1-2H2,(H,8,9)",PMMYEEVYMWASQN-UHFFFAOYSA-N,OC1CNC(C1)C(O)=O,0.43992211530,0.00000000000,1,G1,131.13100,-1.20620,30.05030,9,3,3,4,1,52,0,1,1,1,69.56,52.49304011993,2.38856669973,125.37151490464
A-3793,sodium 4-[(3-amino-4-methylbenzoyl)amino]benzenesulfonate,"InChI=1S/C14H14N2O4S.Na/c1-9-2-3-10(8-13(9)15)14(17)16-11-4-6-12(7-5-11)21(18,19)20;/h2-8H,15H2,1H3,(H,16,17)(H,18,19,20);/q;+1/p-1",QJGAGCZWQGHNDW-UHFFFAOYSA-M,[Na+].Cc1ccc(cc1N)C(=O)Nc2ccc(cc2)[S]([O-])(=O)=O,-0.94927758680,0.00000000000,1,G1,328.32500,-1.26238,77.94980,22,5,2,8,3,110,2,0,0,2,112.32,150.31169216777,0.00000242000,788.99017826380
A-3794,ethyl 2-methylbut-3-enoate,"InChI=1S/C7H12O2/c1-4-6(3)7(8)9-5-2/h4,6H,1,5H2,2-3H3",WDCCXADRWCXXOR-UHFFFAOYSA-N,CCOC(=O)C(C)C=C,-1.57631085570,0.00000000000,1,G1,128.17100,1.37160,35.99400,9,2,0,2,3,52,0,0,0,0,26.30,55.51436801158,3.58338806791,107.48377837619
A-3795,N-methylhydrazinecarbothioamide,"InChI=1S/C2H7N3S/c1-4-2(6)5-3/h3H2,1H3,(H2,4,5,6)",PTVZQOAHCSKAAS-UHFFFAOYSA-N,CNC(=S)NN,-0.46557285500,1.47603822385,2,G2,105.16600,-1.04600,28.98080,6,2,3,4,0,36,0,0,0,0,50.08,41.87272447389,2.98816088213,46.75488750216
A-3798,potassium chloride,InChI=1S/ClH.K/h1H;/q;+1/p-1,WCUXLLCKKVVCTQ-UHFFFAOYSA-M,[Cl-].[K+],0.67777487980,0.01930369547,4,G5,74.55100,-5.99200,0.00000,2,0,0,2,0,8,0,0,0,0,0.00,62.44413570782,0.00000000000,2.00000000000
A-3799,naphthalene-2-sulfonic acid,"InChI=1S/C10H8O3S/c11-14(12,13)10-6-5-8-3-1-2-4-9(8)7-10/h1-7H,(H,11,12,13)",KVBGVZZKJNLNJU-UHFFFAOYSA-N,O[S](=O)(=O)c1ccc2ccccc2c1,0.23044327800,0.78255257869,3,G4,208.23800,2.08650,53.76260,14,2,1,4,1,72,2,0,0,2,54.37,81.74170366127,2.74937232829,572.69173416652
A-3804,dimethyl 2-methylenesuccinate,"InChI=1S/C7H10O4/c1-5(7(9)11-3)4-6(8)10-2/h1,4H2,2-3H3",ZWWQRMFIZFPUAA-UHFFFAOYSA-N,COC(=O)CC(=C)C(=O)OC,-0.65377031800,0.00000000000,1,G1,158.15300,0.27870,37.78900,11,4,0,4,3,62,0,0,0,0,52.60,64.78943534113,3.87593663252,182.87959510731
A-3805,2-(2-phenoxyethoxy)ethan-1-ol,"InChI=1S/C10H14O3/c11-6-7-12-8-9-13-10-4-2-1-3-5-10/h1-5,11H,6-9H2",ZUAURMBNZUCEAF-UHFFFAOYSA-N,OCCOCCOc1ccccc1,-0.71652561460,0.00000000000,1,G1,182.21900,1.07430,49.84180,13,3,1,3,6,72,1,0,0,1,38.69,77.91249578829,2.06538018403,210.66965993048
A-3806,"7-hydroxy-3,7-dimethyloctanal","InChI=1S/C10H20O2/c1-9(6-8-11)5-4-7-10(2,3)12/h8-9,12H,4-7H2,1-3H3",WPFVBOQKRVRMJB-UHFFFAOYSA-N,CC(CCCC(C)(C)O)CC=O,-0.69213656730,0.00000000000,1,G1,172.26800,2.15270,49.99380,12,2,1,2,6,72,0,0,0,0,37.30,74.97948590964,3.36469112059,124.29049405545
A-3807,N-propylpropan-1-amine,"InChI=1S/C6H15N/c1-3-5-7-6-4-2/h7H,3-6H2,1-2H3",WEHWNAOGRSTTBQ-UHFFFAOYSA-N,CCCNCCC,-0.46108242700,0.11194121350,2,G3,101.19300,1.39600,33.45170,7,1,1,1,4,44,0,0,0,0,12.03,46.11382378342,2.44747288788,23.36099039895
A-3808,aniline,"InChI=1S/C6H7N/c7-6-4-2-1-3-5-6/h1-5H,7H2",PAYRUJLWNCNPSJ-UHFFFAOYSA-N,Nc1ccccc1,-0.42501689530,0.00611722825,2,G3,93.12900,1.26880,30.85440,7,1,1,1,0,36,1,0,0,1,26.02,42.77129381651,3.02146530972,134.10736969541
A-3811,sodium hydrogen-5-sulphoisophthalate,"InChI=1S/C8H6O7S.Na/c9-7(10)4-1-5(8(11)12)3-6(2-4)16(13,14)15;/h1-3H,(H,9,10)(H,11,12)(H,13,14,15);/q;+1/p-1",YXTFRJVQOWZDPP-UHFFFAOYSA-M,[Na+].OC(=O)c1cc(cc(c1)[S]([O-])(=O)=O)C(O)=O,0.10939594750,0.00000000000,1,G1,268.17800,-3.00890,48.32380,17,5,2,9,3,86,1,0,0,1,131.80,118.11483468552,0.00000256000,530.98646829545
A-3812,"hexasodium 8-{[(2E)-6-chloro-4-[(4-{[(4Z)-6-chloro-4-({8-oxido-6-sulfo-3-sulfonato-7-[(E)-2-(2-sulfonatophenyl)diazen-1-yl]naphthalen-1-yl}imino)-4,5-dihydro-1,3,5-triazin-2-yl]amino}phenyl)amino]-1,2-dihydro-1,3,5-triazin-2-ylidene]amino}-3-sulfo-6-sulfonato-2-[(E)-2-(2-sulfonatophenyl)diazen-1-yl]naphthalen-1-olate","InChI=1S/C44H30Cl2N14O20S6.6Na/c45-39-51-41(55-43(53-39)49-27-17-23(81(63,64)65)13-19-15-31(85(75,76)77)35(37(61)33(19)27)59-57-25-5-1-3-7-29(25)83(69,70)71)47-21-9-11-22(12-10-21)48-42-52-40(46)54-44(56-42)50-28-18-24(82(66,67)68)14-20-16-32(86(78,79)80)36(38(62)34(20)28)60-58-26-6-2-4-8-30(26)84(72,73)74;;;;;;/h1-18,57-58H,(H,63,64,65)(H,66,67,68)(H,69,70,71)(H,72,73,74)(H,75,76,77)(H,78,79,80)(H2,47,49,51,53,55)(H2,48,50,52,54,56);;;;;;/q;6*+1/p-6/b59-35-,60-36-;;;;;;",MPEFHPPVCSSFRQ-IGHLAAJMSA-H,[Na+].[Na+].[Na+].[Na+].[Na+].[Na+].[O-][S](=O)(=O)c1cc(Nc2nc(Cl)nc(Nc3ccc(Nc4nc(Cl)nc(Nc5cc(cc6C=C(/C(=N/Nc7ccccc7[S]([O-])(=O)=O)C(=O)c56)[S]([O-])(=O)=O)[S]([O-])(=O)=O)n4)cc3)n2)c8C(=O)C(=N/Nc9ccccc9[S]([O-])(=O)=O)\C(=Cc8c1)[S]([O-])(=O)=O,-0.63038090290,0.00000000000,1,G1,1470.00200,-14.92080,292.99240,92,34,6,48,18,446,7,0,2,9,551.58,662.83240534951,0.00000368166,4685.12963763695
A-3817,methyl(triphenyl)phosphonium bromide,"InChI=1S/C19H18P.BrH/c1-20(17-11-5-2-6-12-17,18-13-7-3-8-14-18)19-15-9-4-10-16-19;/h2-16H,1H3;1H/q+1;/p-1",LSEFCHWGJNHZNT-UHFFFAOYSA-M,[Br-].C[P+](c1ccccc1)(c2ccccc2)c3ccccc3,-0.01892303330,0.00000000000,1,G1,357.23100,0.61430,91.07200,21,0,0,2,3,106,3,0,0,3,0.00,137.50781621884,0.00000161333,569.03924605074