ID,Name,InChI,InChIKey,SMILES,Solubility,SD,Ocurrences,Group,MolWt,MolLogP,MolMR,HeavyAtomCount,NumHAcceptors,NumHDonors,NumHeteroatoms,NumRotatableBonds,NumValenceElectrons,NumAromaticRings,NumSaturatedRings,NumAliphaticRings,RingCount,TPSA,LabuteASA,BalabanJ,BertzCT
A-4108,2-(methylamino)-1-phenylpropan-1-ol hydrochloride,"InChI=1S/C10H15NO.ClH/c1-8(11-2)10(12)9-6-4-3-5-7-9;/h3-8,10-12H,1-2H3;1H/t8-,10-;/m0./s1",BALXUFOVQVENIU-GNAZCLTHSA-N,[Cl-].CN[C@@H](C)[C@H](O)c1ccccc1.[H+],-0.00366944300,0.00000000000,1,G1,201.69700,-1.55560,51.03550,13,2,2,3,3,74,1,0,0,1,32.26,86.87315913493,0.00000000000,232.82342446161
A-4110,sodium 3-nitrobenzene-1-sulfonate,"InChI=1S/C6H5NO5S.Na/c8-7(9)5-2-1-3-6(4-5)13(10,11)12;/h1-4H,(H,10,11,12);/q;+1/p-1",LJRGBERXYNQPJI-UHFFFAOYSA-M,[Na+].[O-][N+](=O)c1cccc(c1)[S]([O-])(=O)=O,-0.05145545780,0.78358566285,4,G4,225.15700,-2.49710,41.05960,14,5,0,8,2,70,1,0,0,1,100.34,102.12641447475,0.00000169000,443.29001530237
A-4112,"2,6,6-trimethylcyclohex-2-ene-1,4-dione","InChI=1S/C9H12O2/c1-6-4-7(10)5-9(2,3)8(6)11/h4H,5H2,1-3H3",AYJXHIDNNLJQDT-UHFFFAOYSA-N,CC1=CC(=O)CC(C)(C)C1=O,-0.87790415010,0.00000000000,1,G1,152.19300,1.50080,42.16900,11,2,0,2,0,60,0,0,1,1,34.14,66.28639795738,3.05429008293,246.28834790886
A-4114,2-[4-(2-hydroxyethoxy)but-2-ynoxy]ethanol,"InChI=1S/C8H14O4/c9-3-7-11-5-1-2-6-12-8-4-10/h9-10H,3-8H2",IXAWTPMDMPUGLV-UHFFFAOYSA-N,OCCOCC#CCOCCO,0.75896182180,0.00000000000,1,G1,174.19600,-0.99240,43.58560,12,4,2,4,6,70,0,0,0,0,58.92,72.10862918387,3.00819850821,121.72862410468
A-4115,"2-hydroxy-3,5-dinitrobenzoic acid","InChI=1S/C7H4N2O7/c10-6-4(7(11)12)1-3(8(13)14)2-5(6)9(15)16/h1-2,10H,(H,11,12)",LWFUFLREGJMOIZ-UHFFFAOYSA-N,OC(=O)c1cc(cc(c1O)[N+]([O-])=O)[N+]([O-])=O,-1.05712575200,0.00000000000,1,G1,228.11600,0.90680,48.37490,16,6,2,9,3,84,1,0,0,1,143.81,86.85228628333,3.57275453806,460.50386313944
A-4116,2-phenylethan-1-ol,"InChI=1S/C8H10O/c9-7-6-8-4-2-1-3-5-8/h1-5,9H,6-7H2",WRMNZCZEMHIOCP-UHFFFAOYSA-N,OCCc1ccccc1,-0.78592391360,0.04228407906,3,G5,122.16700,1.22140,37.23180,9,1,1,1,2,48,1,0,0,1,20.23,54.95552110049,2.61489994009,157.47842076562
A-4119,ethenyl acetate,"InChI=1S/C4H6O2/c1-3-6-4(2)5/h3H,1H2,2H3",XTXRWKRVRITETP-UHFFFAOYSA-N,CC(=O)OC=C,-0.63392271220,0.00000000000,1,G1,86.09000,0.69300,21.96300,6,2,0,2,1,34,0,0,0,0,26.30,36.41954166839,3.04648908091,65.94833690207
A-4123,salicylonitrile,"InChI=1S/C7H5NO/c8-5-6-3-1-2-4-7(6)9/h1-4,9H",CHZCERSEMVWNHL-UHFFFAOYSA-N,Oc1ccccc1C#N,-0.77496562650,0.09540824229,3,G5,119.12300,1.26388,32.82180,9,2,1,2,0,44,1,0,0,1,44.02,52.98315866756,3.19932643863,249.33821798626
A-4124,"sodium 1-amino-4-bromo-9,10-dioxo-9,10-dihydroanthracene-2-sulfonate","InChI=1S/C14H8BrNO5S.Na/c15-8-5-9(22(19,20)21)12(16)11-10(8)13(17)6-3-1-2-4-7(6)14(11)18;/h1-5H,16H2,(H,19,20,21);/q;+1/p-1",TXMRAEGWZZVGIH-UHFFFAOYSA-M,[Na+].Nc1c(cc(Br)c2C(=O)c3ccccc3C(=O)c12)[S]([O-])(=O)=O,-1.30553730230,0.00000000000,1,G1,404.17300,-1.28520,79.82460,23,6,1,9,1,112,2,0,1,3,117.36,161.78506853632,0.00000192000,971.37318668895
A-4125,trimethylsilane,InChI=1S/C3H9Si/c1-4(2)3/h1-3H3,DCERHCFNWRGHLK-UHFFFAOYSA-N,C[Si](C)C,-0.56342768520,0.65160345750,2,G2,73.19100,1.37060,23.34600,4,0,0,1,0,25,0,0,0,0,0.00,29.44679712080,2.32379000772,8.00000000000
A-4126,"2-benzofuran-1,3-dione; 2-(2-hydroxyethoxy)ethanol","InChI=1S/C8H4O3.C4H10O3/c9-7-5-3-1-2-4-6(5)8(10)11-7;5-1-3-7-4-2-6/h1-4H;5-6H,1-4H2",ZLBFMYQIKPWYBC-UHFFFAOYSA-N,OCCOCCO.O=C1OC(=O)c2ccccc12,-1.40524046340,0.00000000000,1,G1,254.23800,-0.01520,61.17860,18,6,2,6,4,98,1,0,1,2,93.06,103.75965796937,0.00000020338,377.78359180767
A-4127,"disodium (4Z)-3-hydroxy-4-[2-(2-hydroxy-3,5-dinitrophenyl)hydrazin-1-ylidene]cyclohexa-2,5-dien-1-one 4-nitroaniline 3-aminobenzene-1-sulfonate 5-amino-2-(phenylamino)benzene-1-sulfonate iron","InChI=1S/C12H8N4O7.C12H12N2O3S.C6H6N2O2.C6H7NO3S.Fe.2Na/c17-7-1-2-8(11(18)5-7)13-14-9-3-6(15(20)21)4-10(12(9)19)16(22)23;13-9-6-7-11(12(8-9)18(15,16)17)14-10-4-2-1-3-5-10;7-5-1-3-6(4-2-5)8(9)10;7-5-2-1-3-6(4-5)11(8,9)10;;;/h1-5,14,18-19H;1-8,14H,13H2,(H,15,16,17);1-4H,7H2;1-4H,7H2,(H,8,9,10);;;/q;;;;;2*+1/p-2/b13-8-;;;;;;",GPGKAHBGRXSZGY-DULHVBCPSA-L,[Na+].[Na+].[Fe].Nc1ccc(cc1)[N+]([O-])=O.Nc2cccc(c2)[S]([O-])(=O)=O.Nc3ccc(Nc4ccccc4)c(c3)[S]([O-])(=O)=O.OC\5=CC(=O)C=CC5=N/Nc6cc(cc(c6O)[N+]([O-])=O)[N+]([O-])=O,-2.52681542320,0.00000000000,1,G1,995.65100,-1.17080,222.20080,65,21,7,29,9,332,5,0,1,6,415.83,422.85535214683,0.00000087117,2822.70674942876
A-4128,benzoic acid,"InChI=1S/C7H6O2/c8-7(9)6-4-2-1-3-5-6/h1-5H,(H,8,9)",WPYMKLBDIGXBTP-UHFFFAOYSA-N,OC(=O)c1ccccc1,-1.61992984400,0.04522260641,3,G5,122.12300,1.38480,33.40130,9,1,1,2,1,46,1,0,0,1,37.30,52.75210108613,2.98145461404,203.41595260426
A-4130,"6-hydroxy-1,4-dihydropyrimidin-4-one","InChI=1S/C4H4N2O2/c7-3-1-4(8)6-2-5-3/h1-2H,(H2,5,6,7,8)",DUFGYCAXVIUXIP-UHFFFAOYSA-N,OC1=CC(=O)NC=N1,-1.58716112220,0.26402718916,4,G5,112.08800,-0.52450,26.52250,8,3,2,4,0,42,1,0,0,1,65.98,44.82645493363,3.27741745953,229.47996149735
A-4132,benzyl formate,"InChI=1S/C8H8O2/c9-7-10-6-8-4-2-1-3-5-8/h1-5,7H,6H2",UYWQUFXKFGHYNT-UHFFFAOYSA-N,O=COCc1ccccc1,-1.67311980290,0.00000000000,1,G1,136.15000,1.35960,37.29500,10,2,0,2,3,52,1,0,0,1,26.30,59.43635467784,2.49877085328,193.67238169634
A-4133,1-ethoxybutane,"InChI=1S/C6H14O/c1-3-5-6-7-4-2/h3-6H2,1-2H3",PZHIWRCQKBBTOW-UHFFFAOYSA-N,CCCCOCC,-1.54996065950,0.00000000000,1,G1,102.17700,1.82300,31.40100,7,1,0,1,4,44,0,0,0,0,9.23,45.67750682932,2.44747288788,23.36099039895
A-4136,"1,1,3,3-tetramethylbutyl hydroperoxide","InChI=1S/C20H14N6O6S/c1-2-32-19(29)15(23-22-11-7-9-12(10-8-11)26(30)31)16(27)18-24-25-14-6-4-3-5-13(14)17(28)21-20(25)33-18/h3-10,22H,2H2,1H3/b23-15+",KBAQMIYTOZVRBC-HZHRSRAPSA-N,CCOC(=O)C(=N/Nc1ccc(cc1)[N+]([O-])=O)/C(=O)C2=NN3C(=NC(=O)c4ccccc34)S2,-2.22163309990,0.00000000000,1,G1,466.43500,2.42630,119.75760,33,12,1,13,7,166,4,0,0,4,158.16,187.83804112697,1.71809145664,1490.74694902392
A-4138,1-carbamimidamido-N-(2-methylphenyl)methanimidamide,"InChI=1S/C9H13N5/c1-6-4-2-3-5-7(6)13-9(12)14-8(10)11/h2-5H,1H3,(H6,10,11,12,13,14)",SQZCAOHYQSOZCE-UHFFFAOYSA-N,Cc1ccccc1N=C(N)N=C(N)N,-1.84224149930,0.00000000000,1,G1,191.23800,0.21462,58.27120,14,1,3,5,1,74,1,0,0,1,102.78,82.33654652545,2.97773583152,376.54363309001
A-4142,2-(5-ethenyl-5-methyloxolan-2-yl)propan-2-ol,"InChI=1S/C10H18O2/c1-5-10(4)7-6-8(12-10)9(2,3)11/h5,8,11H,1,6-7H2,2-4H3",BRHDDEIRQPDPMG-UHFFFAOYSA-N,CC(C)(O)C1CCC(C)(O1)C=C,-1.79972845820,0.00000000000,1,G1,170.25200,1.88100,49.00680,12,2,1,2,2,70,0,1,1,1,29.46,74.23607485339,2.62547662728,180.76782581216
A-4143,N-(2-methylphenyl)-3-oxobutanamide,"InChI=1S/C11H13NO2/c1-8-5-3-4-6-10(8)12-11(14)7-9(2)13/h3-6H,7H2,1-2H3,(H,12,14)",TVZIWRMELPWPPR-UHFFFAOYSA-N,CC(=O)CC(=O)Nc1ccccc1C,-1.85019226090,0.02287874530,2,G3,191.23000,1.91262,55.10670,14,2,1,3,3,74,1,0,0,1,46.17,83.12902007518,2.64962878621,358.06009353303
A-4144,[1-(carbamoylamino)-2-methylpropyl]urea,"InChI=1S/C6H14N4O2/c1-3(2)4(9-5(7)11)10-6(8)12/h3-4H,1-2H3,(H3,7,9,11)(H3,8,10,12)",QFHMNFAUXJAINK-UHFFFAOYSA-N,CC(C)C(NC(N)=O)NC(N)=O,-1.80969435870,0.47712125475,2,G3,174.20400,-0.69490,44.06420,12,2,4,6,3,70,0,0,0,0,110.24,70.66651156114,4.03969609570,164.38689879982
A-4145,"2-Chloro-1,1-difluoroethane","InChI=1S/C2H3ClF2/c3-1-2(4)5/h2H,1H2",ATEBGNALLCMSGS-UHFFFAOYSA-N,FC(F)CCl,-0.92296320850,0.00000000000,1,G1,100.49500,1.49030,16.72400,5,0,0,3,1,32,0,0,0,0,0.00,33.73853017496,2.53953886136,21.60964047444
A-4146,"2,2'-(1,3-phenylene)dipropan-2-ol","InChI=1S/C12H18O2/c1-11(2,13)9-6-5-7-10(8-9)12(3,4)14/h5-8,13-14H,1-4H3",UGPWRRVOLLMHSC-UHFFFAOYSA-N,CC(C)(O)c1cccc(c1)C(C)(C)O,-1.86353304550,0.03324002860,2,G3,194.27400,2.14140,56.93160,14,2,2,2,2,78,1,0,0,1,40.46,85.20952331027,3.14816389237,286.57899354201
A-4147,2-ethyl-6-methylaniline,"InChI=1S/C9H13N/c1-3-8-6-4-5-7(2)9(8)10/h4-6H,3,10H2,1-2H3",JJVKJJNCIILLRP-UHFFFAOYSA-N,CCc1cccc(C)c1N,-1.70612717620,0.06571043210,2,G3,135.21000,2.13962,44.96940,10,1,1,1,1,54,1,0,0,1,26.02,61.86612015970,3.14303948131,228.16991743324
A-4149,calcium sulfate,"InChI=1S/Ca.H2O4S/c;1-5(2,3)4/h;(H2,1,2,3,4)/q+2;/p-2",OSGAYBCDTDRGGQ-UHFFFAOYSA-L,[Ca++].[O-][S]([O-])(=O)=O,-1.71568764500,0.02446884157,3,G5,136.14100,-1.71880,16.22860,6,4,0,6,0,32,0,0,0,0,80.26,65.12195054695,0.00000000000,90.71649287258
A-4151,N-(4-methoxyphenyl)-3-oxobutanamide,"InChI=1S/C11H13NO3/c1-8(13)7-11(14)12-9-3-5-10(15-2)6-4-9/h3-6H,7H2,1-2H3,(H,12,14)",SWAJJKROCOJICG-UHFFFAOYSA-N,COc1ccc(NC(=O)CC(C)=O)cc1,-1.90147718330,0.00000000000,1,G1,207.22900,1.61280,56.92170,15,3,1,4,4,80,1,0,0,1,55.40,88.24256530468,2.56857365279,356.60071282201
A-4152,"2-methyl-4-phenyl-1,3-dioxolane","InChI=1S/C10H12O2/c1-8-11-7-10(12-8)9-5-3-2-4-6-9/h2-6,8,10H,7H2,1H3",YPPGSWWESBCSCT-UHFFFAOYSA-N,CC1OCC(O1)c2ccccc2,-1.80545060900,0.00000000000,1,G1,164.20400,2.12050,45.68200,12,2,0,2,1,64,1,1,1,2,18.46,72.11243088257,2.11324149900,245.27530899395
A-4153,3-methyl-5-propylcyclohex-2-en-1-one,"InChI=1S/C10H16O/c1-3-4-9-5-8(2)6-10(11)7-9/h6,9H,3-5,7H2,1-2H3",URQMEZRQHLCJKR-UHFFFAOYSA-N,CCCC1CC(=CC(=O)C1)C,-1.77258709380,0.00000000000,1,G1,152.23700,2.71190,46.39600,11,1,0,1,2,62,0,0,1,1,17.07,68.48981797173,2.49878223192,179.31179861284
A-4154,4-cyanophenyl acetate,"InChI=1S/C9H7NO2/c1-7(11)12-9-4-2-8(6-10)3-5-9/h2-5H,1H3",CJGXWABHYYJNJH-UHFFFAOYSA-N,CC(=O)Oc1ccc(cc1)C#N,-1.79901729340,0.00000000000,1,G1,161.16000,1.48358,42.46600,12,3,0,3,1,60,1,0,0,1,50.09,70.19387647371,2.79538518764,321.37692639521
A-4156,"(2S)-2-(1,3-dioxoisoindol-2-yl)pentanedioic acid","InChI=1S/C13H11NO6/c15-10(16)6-5-9(13(19)20)14-11(17)7-3-1-2-4-8(7)12(14)18/h1-4,9H,5-6H2,(H,15,16)(H,19,20)/t9-/m0/s1",FEFFSKLJNYRHQN-VIFPVBQESA-N,OC(=O)CC[C@H](N1C(=O)c2ccccc2C1=O)C(O)=O,-1.44633168590,0.00000000000,1,G1,277.23200,0.60060,65.23560,20,4,2,7,5,104,1,0,1,2,111.98,112.97455634151,2.32108923179,573.63387373803
A-4157,1-Methyl-4-propan-2-ylcyclohexene,"InChI=1S/2C10H18/c2*1-8(2)10-6-4-9(3)5-7-10/h2*4,8,10H,5-7H2,1-3H3",GEEMIUONIWYDTI-UHFFFAOYSA-N,CC(C)C1CCC(=CC1)C.CC(C)C2CCC(=CC2)C,-5.49525543590,0.00000000000,1,G1,276.50800,6.77760,91.87200,20,0,0,0,2,116,0,0,2,2,0.00,127.28811398347,0.00000020000,295.94747320502
A-4158,"1,1-dichloroethene",InChI=1S/C2H2Cl2/c1-2(3)4/h1H2,LGXVIGDEPROXKC-UHFFFAOYSA-N,ClC(Cl)=C,-1.58858092650,0.02285953675,2,G3,96.94400,1.93520,20.84600,4,0,0,2,0,24,0,0,0,0,0.00,35.02112256381,2.80303948767,27.01955000865
A-4162,(6R)-3-methyl-6-(propan-2-yl)cyclohex-2-en-1-one,"InChI=1S/C10H16O/c1-7(2)9-5-4-8(3)6-10(9)11/h6-7,9H,4-5H2,1-3H3/t9-/m1/s1",YSTPAHQEHQSRJD-SECBINFHSA-N,CC(C)[C@H]1CCC(=CC1=O)C,-1.78824369030,0.00000000000,1,G1,152.23700,2.56780,46.32600,11,1,0,1,1,62,0,0,1,1,17.07,68.48981797173,2.68372322266,189.04945807618
A-4163,"(2S,5R)-6-amino-3,3-dimethyl-7-oxo-4-thia-1-azabicyclo[3.2.0]heptane-2-carboxylic acid","InChI=1S/C8H12N2O3S/c1-8(2)4(7(12)13)10-5(11)3(9)6(10)14-8/h3-4,6H,9H2,1-2H3,(H,12,13)/t3-,4+,6-/m1/s1",NGHVIOIJCVXTGV-ALEPSDHESA-N,CC1(C)S[C@@H]2[C@H](N)C(=O)N2[C@H]1C(O)=O,-1.94404510790,0.00000000000,1,G1,216.26200,-0.53940,51.70320,14,4,2,6,1,78,0,2,2,2,83.63,85.62229586641,2.31655024800,317.70825265063
A-4165,"boron(+3) cation; N,N-dimethyloctan-1-amine; trichloride","InChI=1S/C10H23N.B.3ClH/c1-4-5-6-7-8-9-10-11(2)3;;;;/h4-10H2,1-3H3;;3*1H/q;+3;;;/p-3",SBDAPZFOTCURRM-UHFFFAOYSA-K,[B+3].[Cl-].[Cl-].[Cl-].CCCCCCCCN(C)C,-5.46537019330,0.00000000000,1,G1,274.47200,-6.46030,57.68400,15,1,0,5,7,92,0,0,0,0,3.24,116.56495384054,-0.00000008333,85.06775238084
A-4167,2-chlorobenzenethiol,"InChI=1S/C6H5ClS/c7-5-3-1-2-4-6(5)8/h1-4,8H",PWOBDMNCYMQTCE-UHFFFAOYSA-N,Sc1ccccc1Cl,-1.78003513310,0.43945098943,3,G5,144.62600,2.62870,38.70400,8,1,1,2,0,42,1,0,0,1,0.00,58.88973600978,3.13486151135,164.63833891467
A-4169,3-aminopyrazine-2-carboxylic acid,"InChI=1S/C5H5N3O2/c6-4-3(5(9)10)7-1-2-8-4/h1-2H,(H2,6,8)(H,9,10)",ZAGZIOYVEIDDJA-UHFFFAOYSA-N,Nc1nccnc1C(O)=O,-1.76315959650,0.00000000000,1,G1,139.11400,-0.24300,33.40370,10,4,2,5,1,52,1,0,0,1,89.10,56.53128774504,3.15294144668,260.82490540428
A-4170,[(2-chlorophenyl)methyl]dimethylamine,"InChI=1S/C9H12ClN/c1-11(2)7-8-5-3-4-6-9(8)10/h3-6H,7H2,1-2H3",MZKKJAOOPDDXQQ-UHFFFAOYSA-N,CN(C)Cc1ccccc1Cl,-1.84935542180,0.85660522175,2,G2,169.65500,2.40160,48.84300,11,1,0,2,2,60,1,0,0,1,3.24,72.58932935977,2.77550132040,232.75927179154
A-4171,"calcium diethyl bis[[[3,5-bis(1,1-dimethylethyl)-4-hydroxyphenyl]methyl]phosphonate]","InChI=1S/2C17H29O4P.Ca/c2*1-8-21-22(19,20)11-12-9-13(16(2,3)4)15(18)14(10-12)17(5,6)7;/h2*9-10,18H,8,11H2,1-7H3,(H,19,20);/q;;+2/p-2",SJEZDMHBMZPMME-UHFFFAOYSA-L,[Ca++].CCO[P]([O-])(=O)Cc1cc(c(O)c(c1)C(C)(C)C)C(C)(C)C.CCO[P]([O-])(=O)Cc2cc(c(O)c(c2)C(C)(C)C)C(C)(C)C,-2.46167356990,0.00000000000,1,G1,694.84000,7.77340,182.64060,45,8,2,11,8,252,2,0,0,2,139.18,301.96872929153,0.00000084174,1201.01307522273
A-4175,"diallyl oxydiethane-2,1-diyl biscarbonate","InChI=1S/C12H18O7/c1-3-5-16-11(13)18-9-7-15-8-10-19-12(14)17-6-4-2/h3-4H,1-2,5-10H2",JHQVCQDWGSXTFE-UHFFFAOYSA-N,C=CCOC(=O)OCCOCCOC(=O)OCC=C,-2.06526472010,0.00000000000,1,G1,274.26900,1.68140,65.81300,19,7,0,7,10,108,0,0,0,0,80.29,111.26517856945,3.26329647805,259.80248600977
A-4176,oct-7-en-1-ol,"InChI=1S/C8H16O/c1-2-3-4-5-6-7-8-9/h2,9H,1,3-8H2",WXPWPYISTQCNDP-UHFFFAOYSA-N,OCCCCCCC=C,-1.74423286380,0.01608092915,2,G3,128.21500,2.11520,40.36780,9,1,1,1,6,54,0,0,0,0,20.23,57.39847654862,2.66388388740,59.58797503894
A-4178,benzenesulfonyl chloride,"InChI=1S/C6H5ClO2S/c7-10(8,9)6-4-2-1-3-5-6/h1-5H",CSKNSYBAZOQPLR-UHFFFAOYSA-N,Cl[S](=O)(=O)c1ccccc1,-1.88532188000,0.00000000000,1,G1,176.62400,1.61410,39.48080,10,2,0,4,1,54,1,0,0,1,34.14,63.86387098136,3.21864662888,303.77951809722
A-4179,"3-[(2-isopropyl-5-methylcyclohexyl)oxy]propane-1,2-diol","InChI=1S/C13H26O3/c1-9(2)12-5-4-10(3)6-13(12)16-8-11(15)7-14/h9-15H,4-8H2,1-3H3",MDVYIGJINBYKOM-UHFFFAOYSA-N,CC(C)C1CCC(C)CC1OCC(O)CO,-2.00635858860,0.00000000000,1,G1,230.34800,1.81700,64.17560,16,3,2,3,5,96,0,1,1,1,49.69,98.81473798096,2.44265517235,193.61672791871
A-4180,3-hydroxy-4-methoxybenzaldehyde,"InChI=1S/C8H8O3/c1-11-8-3-2-6(5-9)4-7(8)10/h2-5,10H,1H3",JVTZFYYHCGSXJV-UHFFFAOYSA-N,COc1ccc(C=O)cc1O,-1.82624324510,0.00000000000,1,G1,152.14900,1.21330,40.04630,11,3,1,3,2,58,1,0,0,1,46.53,64.23058843004,3.08545250214,268.03972257956
A-4181,4-methylbenzaldehyde,"InChI=1S/C8H8O/c1-7-2-4-8(6-9)5-3-7/h2-6H,1H3",FXLOVSHXALFLKQ-UHFFFAOYSA-N,Cc1ccc(C=O)cc1,-1.72370153250,0.47904292430,2,G3,120.15100,1.80752,36.56650,9,1,0,1,1,46,1,0,0,1,17.07,54.32280944833,3.00978194779,198.31254955650
A-4182,4-amino-3-nitrophenol,"InChI=1S/C6H6N2O3/c7-5-2-1-4(9)3-6(5)8(10)11/h1-3,9H,7H2",IQXUIDYRTHQTET-UHFFFAOYSA-N,Nc1ccc(O)cc1[N+]([O-])=O,-1.83376465050,0.00000000000,1,G1,154.12500,0.88260,39.17360,11,4,2,5,1,58,1,0,0,1,89.39,62.21850329121,3.23220887031,297.87891172430
A-4184,2-nitrophenol,"InChI=1S/C6H5NO3/c8-6-4-2-1-3-5(6)7(9)10/h1-4,8H",IQUPABOKLQSFBK-UHFFFAOYSA-N,Oc1ccccc1[N+]([O-])=O,-1.80291423580,0.03227733291,3,G5,139.11000,1.30040,34.76120,10,3,1,4,1,52,1,0,0,1,63.37,56.87861259419,3.15294144668,258.92477087439
A-4185,"2,4,6-trimethylcyclohex-3-ene-1-carbaldehyde","InChI=1S/C10H16O/c1-7-4-8(2)10(6-11)9(3)5-7/h4,6,8-10H,5H2,1-3H3",YJSUCBQWLKRPDL-UHFFFAOYSA-N,CC1CC(=CC(C)C1C=O)C,-1.84406372350,0.00000000000,1,G1,152.23700,2.42370,46.25600,11,1,0,1,1,62,0,0,1,1,17.07,68.48981797173,2.76225728982,181.31179861284
A-4186,5-pentyloxolan-2-one,"InChI=1S/C9H16O2/c1-2-3-4-5-8-6-7-9(10)11-8/h8H,2-7H2,1H3/t8-/m0/s1",OALYTRUKMRCXNH-QMMMGPOBSA-N,CCCCC[C@H]1CCC(=O)O1,-1.85529403970,0.00000000000,1,G1,156.22500,2.27230,43.25600,11,2,0,2,4,64,0,1,1,1,26.30,67.92802411902,2.03593061957,131.52442279203
A-4188,"1-(2,6-dimethylphenoxy)acetone","InChI=1S/C11H14O2/c1-8-5-4-6-9(2)11(8)13-7-10(3)12/h4-6H,7H2,1-3H3",XDJULAUHYAJQBU-UHFFFAOYSA-N,CC(=O)COc1c(C)cccc1C,-1.91854478390,0.00000000000,1,G1,178.23100,2.27124,52.09200,13,2,0,2,3,70,1,0,0,1,26.30,78.53118102103,2.80692056174,295.61635947894
A-4189,"2,5-dimethoxyaniline","InChI=1S/C8H11NO2/c1-10-6-3-4-8(11-2)7(9)5-6/h3-5H,9H2,1-2H3",NAZDVUBIEPVUKE-UHFFFAOYSA-N,COc1ccc(OC)c(N)c1,-1.85886903940,0.00000000000,1,G1,153.18100,1.28600,43.95840,11,3,1,3,2,60,1,0,0,1,44.48,65.72826850432,2.99296295184,247.84741592489
A-4192,"N-(2,4-dimethylphenyl)-3-oxobutanamide","InChI=1S/C12H15NO2/c1-8-4-5-11(9(2)6-8)13-12(15)7-10(3)14/h4-6H,7H2,1-3H3,(H,13,15)",HGVIAKXYAZRSEG-UHFFFAOYSA-N,CC(=O)CC(=O)Nc1ccc(C)cc1C,-1.99007868230,0.00000000000,1,G1,205.25700,2.22104,59.84370,15,2,1,3,3,80,1,0,0,1,46.17,89.49396218957,2.72371557411,396.60863468164
A-4193,N-(2-methoxy-5-methylphenyl)acetamide,"InChI=1S/C10H13NO2/c1-7-4-5-10(13-3)9(6-7)11-8(2)12/h4-6H,1-3H3,(H,11,12)",POLMNXCVMYMLSF-UHFFFAOYSA-N,COc1ccc(C)cc1NC(C)=O,-1.93116475500,0.00000000000,1,G1,179.21900,1.96202,52.03470,13,2,1,3,2,70,1,0,0,1,38.33,77.71610109024,3.00538704854,320.70082633508
A-4197,"5-methyl-2-phenyl-2,3-dihydro-1H-pyrazol-3-one","InChI=1S/C10H10N2O/c1-8-7-10(13)12(11-8)9-5-3-2-4-6-9/h2-6H,7H2,1H3",QELUYTUMUWHWMC-UHFFFAOYSA-N,CC1=NN(C(=O)C1)c2ccccc2,-1.92508528440,0.05849947270,2,G3,174.20300,1.79920,51.65400,13,2,0,3,1,66,1,0,1,2,32.67,76.67215469990,2.32623861821,356.44731208418
A-4198,heptanal,"InChI=1S/C7H14O/c1-2-3-4-5-6-7-8/h7H,2-6H2,1H3",FXHGMKSSBGDXIY-UHFFFAOYSA-N,CCCCCCC=O,-1.75012442850,0.11294985104,3,G5,114.18800,2.15570,34.82300,8,1,0,1,5,48,0,0,0,0,17.07,51.09042581425,2.61629309042,50.34851554560
A-4200,tert-butyl prop-2-enoate,"InChI=1S/C7H12O2/c1-5-6(8)9-7(2,3)4/h5H,1H2,2-4H3",ISXSCDLOGDJUNJ-UHFFFAOYSA-N,CC(C)(C)OC(=O)C=C,-1.80459371530,0.19469110250,2,G3,128.17100,1.51410,36.04200,9,2,0,2,1,52,0,0,0,0,26.30,55.51436801158,3.73639429181,119.36806555425
A-4202,"2-Hydroxy-N,N-dimethylpropanamide","InChI=1S/C5H11NO2/c1-4(7)5(8)6(2)3/h4,7H,1-3H3",YEBLAXBYYVCOLT-UHFFFAOYSA-N,CC(O)C(=O)N(C)C,1.63023512580,0.00000000000,1,G1,117.14800,-0.54460,30.37480,8,2,1,3,1,48,0,0,0,0,40.54,48.91460900786,3.65123357893,78.42945954287
A-4203,azanium 2-hydroxyacetate,"InChI=1S/C2H4O3.H3N/c3-1-2(4)5;/h3H,1H2,(H,4,5);1H3",UBKBVPONTPMQQW-UHFFFAOYSA-N,[NH4+].OCC([O-])=O,1.70091590910,0.00000000000,1,G1,93.08200,-1.89520,18.07760,6,3,2,4,1,38,0,0,0,0,96.86,34.98993311061,0.00000000000,44.05785641097
A-4204,"1,1'-binaphthalene-8,8'-dicarboxylic acid","InChI=1S/C22H14O4/c23-21(24)17-11-3-7-13-5-1-9-15(19(13)17)16-10-2-6-14-8-4-12-18(20(14)16)22(25)26/h1-12H,(H,23,24)(H,25,26)",XGDAODQNSVFBGM-UHFFFAOYSA-N,OC(=O)c1cccc2cccc(c3cccc4cccc(C(O)=O)c34)c12,-2.23344033650,0.00000000000,1,G1,342.35000,5.05640,100.80860,26,2,2,4,3,126,4,0,0,4,74.60,148.49322232230,2.18694465916,1085.58296054865
A-4205,2-methylpropyl prop-2-enoate,"InChI=1S/C7H12O2/c1-4-7(8)9-5-6(2)3/h4,6H,1,5H2,2-3H3",CFVWNXQPGQOHRJ-UHFFFAOYSA-N,CC(C)COC(=O)C=C,-1.80675977710,0.29269711661,3,G5,128.17100,1.37160,35.99400,9,2,0,2,3,52,0,0,0,0,26.30,55.51436801158,3.27250147238,105.48377837619
A-4206,3-phenylbutanal,"InChI=1S/C10H12O/c1-9(7-8-11)10-5-3-2-4-6-10/h2-6,8-9H,7H2,1H3",MYHGOWDLVRDUFA-UHFFFAOYSA-N,CC(CC=O)c1ccccc1,-1.86983286000,0.00000000000,1,G1,148.20500,2.37910,45.53800,11,1,0,1,3,58,1,0,0,1,17.07,67.05269367713,2.68009732075,215.57420335782
A-4207,4-amino-3-methylphenol,"InChI=1S/C7H9NO/c1-5-4-6(9)2-3-7(5)8/h2-4,9H,8H2,1H3",QGNGOGOOPUYKMC-UHFFFAOYSA-N,Cc1cc(O)ccc1N,-1.78942205290,0.07745098000,2,G3,123.15500,1.28282,37.25620,9,2,2,2,0,48,1,0,0,1,46.25,53.93046968310,3.17167803044,220.15617759993
A-4211,methyl 2-oxo-2-phenylacetate,"InChI=1S/C9H8O3/c1-12-9(11)8(10)7-5-3-2-4-6-7/h2-6H,1H3",YLHXLHGIAMFFBU-UHFFFAOYSA-N,COC(=O)C(=O)c1ccccc1,-1.91423734780,1.49783931310,2,G2,164.16000,1.04230,42.78850,12,3,0,3,2,62,1,0,0,1,43.37,69.96281889228,2.86131308801,289.90177445528