ID,Name,InChI,InChIKey,SMILES,Solubility,SD,Ocurrences,Group,MolWt,MolLogP,MolMR,HeavyAtomCount,NumHAcceptors,NumHDonors,NumHeteroatoms,NumRotatableBonds,NumValenceElectrons,NumAromaticRings,NumSaturatedRings,NumAliphaticRings,RingCount,TPSA,LabuteASA,BalabanJ,BertzCT
A-263,2-[(E)-oct-2-enyl]butanedioic acid,"InChI=1S/C12H20O4/c1-2-3-4-5-6-7-8-10(12(15)16)9-11(13)14/h6-7,10H,2-5,8-9H2,1H3,(H,13,14)(H,15,16)/b7-6+",QWBQTFQCJMOSPK-VOTSOKGWSA-N,CCCCC/C=C/CC(CC(O)=O)C(O)=O,-2.40424057390,0.00000000000,1,G1,228.28800,2.68850,61.27760,16,2,2,4,9,92,0,0,0,0,74.60,95.97552295849,3.83186977329,245.40331533468
A-264,"2-(prop-1-en-1-yl)-2,3,3-tripropylbutanedioic acid","InChI=1S/C16H28O4/c1-5-9-15(10-6-2,13(17)18)16(11-7-3,12-8-4)14(19)20/h5,9H,6-8,10-12H2,1-4H3,(H,17,18)(H,19,20)/b9-5+",CDQYPMBESFIYFO-WEVVVXLNSA-N,CCCC(CCC)(C(O)=O)C(CCC)(\C=C\C)C(O)=O,-3.49535960060,0.00000000000,1,G1,284.39600,4.10480,79.67560,20,2,2,4,10,116,0,0,0,0,74.60,121.43529141607,6.20856789418,353.48837308389
A-266,17-hydroxy-1-methylandrost-4-en-3-one,"InChI=1S/C20H30O2/c1-12-10-14(21)11-13-4-5-15-16-6-7-18(22)19(16,2)9-8-17(15)20(12,13)3/h11-12,15-18,22H,4-10H2,1-3H3/t12-,15-,16-,17-,18-,19-,20-/m0/s1",KROXBRXHRBCDNO-IFMMWYRXSA-N,C[C@H]1CC(=O)C=C2CC[C@H]3[C@@H]4CC[C@H](O)[C@@]4(C)CC[C@@H]3[C@@]12C,-3.52642256660,0.00000000000,1,G1,302.45800,4.12520,87.26380,22,2,1,2,0,122,0,3,4,4,37.30,133.91597940730,1.72002017769,535.82533378150
A-267,"sodium 2-{2,5-dichloro-4-[(E)-2-(2-methyl-1H-indol-3-yl)diazen-1-yl]benzenesulfonamido}ethane-1-sulfonate","InChI=1S/C17H16Cl2N4O5S2.Na/c1-10-17(11-4-2-3-5-14(11)21-10)23-22-15-8-13(19)16(9-12(15)18)30(27,28)20-6-7-29(24,25)26;/h2-5,8-9,20,22H,6-7H2,1H3,(H,24,25,26);/q;+1/p-1/b23-17+;",IQWBFKOZXPTGNT-YFZNFVDXSA-M,[Na+].CC\1=Nc2ccccc2C1=N/Nc3cc(Cl)c(cc3Cl)[S](=O)(=O)NCC[S]([O-])(=O)=O,-3.75617951680,0.09281828845,2,G3,513.36000,-0.25690,115.58540,31,8,2,14,7,160,2,0,1,3,140.12,211.57722608212,0.00000341333,1281.42224502931
A-270,2-hydroxy-1-(4-{[4-(2-hydroxy-2-methylpropanoyl)phenyl]methyl}phenyl)-2-methylpropan-1-one,"InChI=1S/C21H24O4/c1-20(2,24)18(22)16-9-5-14(6-10-16)13-15-7-11-17(12-8-15)19(23)21(3,4)25/h5-12,24-25H,13H2,1-4H3",PCKZAVNWRLEHIP-UHFFFAOYSA-N,CC(C)(O)C(=O)c1ccc(Cc2ccc(cc2)C(=O)C(C)(C)O)cc1,-4.53637859700,0.00000000000,1,G1,340.41900,3.18460,96.94660,25,4,2,4,6,132,2,0,0,2,74.60,147.68448805961,2.10290930374,690.02872792211
A-271,barium(+2) cation; iron(+3) cation; oxygen(-2) anion,InChI=1S/Ba.12Fe.19O/q+2;12*+3;19*-2,HPYIMVBXZPJVBV-UHFFFAOYSA-N,[O--].[O--].[O--].[O--].[O--].[O--].[O--].[O--].[O--].[O--].[O--].[O--].[O--].[O--].[O--].[O--].[O--].[O--].[O--].[Fe+3].[Fe+3].[Fe+3].[Fe+3].[Fe+3].[Fe+3].[Fe+3].[Fe+3].[Fe+3].[Fe+3].[Fe+3].[Fe+3].[Ba++],-8.74485954380,0.00000000000,1,G1,1111.44900,-2.66800,18.79750,32,0,0,32,0,212,0,0,0,0,541.50,351.22637672475,0.00000000000,36.26982723592
A-273,"(octahydro-4,7-methano-1H-indenediyl)bis(methylene) diacrylate","InChI=1S/C18H24O4/c1-3-16(19)21-9-11-5-6-14-15-8-12(18(11)14)7-13(15)10-22-17(20)4-2/h3-4,11-15,18H,1-2,5-10H2",VEBCLRKUSAGCDF-UHFFFAOYSA-N,C=CC(=O)OCC1CCC2C3CC(CC3COC(=O)C=C)C12,-4.49308581870,0.00000000000,1,G1,304.38600,2.74320,81.72000,22,4,0,4,6,120,0,3,3,3,52.60,131.09670210672,1.54551395846,483.47882802414
A-276,1-(2-benzenesulfonamidophenyl)-3-phenylurea,"InChI=1S/C19H17N3O3S/c23-19(20-15-9-3-1-4-10-15)21-17-13-7-8-14-18(17)22-26(24,25)16-11-5-2-6-12-16/h1-14,22H,(H2,20,21,23)",BGLZECVIKIGPIF-UHFFFAOYSA-N,O=C(Nc1ccccc1)Nc2ccccc2N[S](=O)(=O)c3ccccc3,-4.57840287850,0.00000000000,1,G1,367.43000,4.13140,102.77590,26,3,3,7,5,132,3,0,0,3,87.30,151.48241818930,1.77100018441,990.80752358234
A-277,dipotassium; oxygen(-2) anion; titanium(+4) cation,InChI=1S/2K.3O.Ti/q2*+1;3*-2;+4,KEWYKJOOCFOYTD-UHFFFAOYSA-N,[O--].[O--].[O--].[K+].[K+].[Ti+4],-5.58364312630,0.31666018837,3,G5,174.06000,-6.35090,2.05950,6,0,0,6,0,24,0,0,0,0,85.50,136.66200105039,0.00000000000,8.75488750216
A-278,2-ethylhexyl prop-2-enoate,"InChI=1S/C11H20O2/c1-4-7-8-10(5-2)9-13-11(12)6-3/h6,10H,3-5,7-9H2,1-2H3",GOXQRTZXKQZDDN-UHFFFAOYSA-N,CCCCC(CC)COC(=O)C=C,-4.28320461380,0.50885230690,2,G2,184.27900,2.93200,54.46200,13,2,0,2,7,76,0,0,0,0,26.30,80.97413646916,3.57893056069,152.16926858275
A-280,"zinc bis[O,O-bis(2-ethylhexyl)] bis(dithiophosphate)","InChI=1S/2C16H35O2PS2.Zn/c2*1-5-9-11-15(7-3)13-17-19(20,21)18-14-16(8-4)12-10-6-2;/h2*15-16H,5-14H2,1-4H3,(H,20,21);/q;;+2/p-2",OECQDNKCDGGPFY-UHFFFAOYSA-L,[Zn++].CCCCC(CC)CO[P]([S-])(=S)OCC(CC)CCCC.CCCCC(CC)CO[P]([S-])(=S)OCC(CC)CCCC,-4.92885597140,0.00000000000,1,G1,772.49800,12.44510,200.33200,43,8,0,11,28,256,0,0,0,0,36.92,302.78961495146,-0.00000072727,589.75313572264
A-284,Tricyclodecanyl acetate,"InChI=1S/C12H18O2/c1-7(13)14-12-6-8-5-11(12)10-4-2-3-9(8)10/h8-12H,2-6H2,1H3",YKFHIJHJBUDXFP-UHFFFAOYSA-N,CC(=O)OC1CC2CC1C3CCCC23,-3.33804982780,0.00000000000,1,G1,194.27400,2.37420,52.59900,14,2,0,2,1,78,0,3,3,3,26.30,85.01118815516,1.73499116003,261.04734401698
A-285,ethanethiol,"InChI=1S/C2H6S/c1-2-3/h3H,2H2,1H3",DNJIEGIFACGWOD-UHFFFAOYSA-N,CCS,-0.84591655960,0.15051362415,3,G5,62.13700,0.93610,19.52700,3,1,1,1,0,20,0,0,0,0,0.00,26.25925980563,1.63299316186,2.75488750216
A-293,3-({[({[(2-ethylhexyl)oxy]carbonyl}peroxy)carbonyl]oxy}methyl)heptane,"InChI=1S/C18H34O6/c1-5-9-11-15(7-3)13-21-17(19)23-24-18(20)22-14-16(8-4)12-10-6-2/h15-16H,5-14H2,1-4H3",ZACVGCNKGYYQHA-UHFFFAOYSA-N,CCCCC(CC)COC(=O)OOC(=O)OCC(CC)CCCC,-2.59517544290,0.00000000000,1,G1,346.46400,5.64060,91.47800,24,6,0,6,12,142,0,0,0,0,71.06,145.64978740643,3.85621877508,299.47067498702
A-295,"3,7-dimethyloct-6-enal","InChI=1S/C10H18O/c1-9(2)5-4-6-10(3)7-8-11/h5,8,10H,4,6-7H2,1-3H3/t10-/m1/s1",NEHNMFOYXAPHSD-SNVBAGLBSA-N,C[C@H](CCC=C(C)C)CC=O,-3.24375094700,0.00000000000,1,G1,154.25300,2.95790,48.51000,11,1,0,1,5,64,0,0,0,0,17.07,69.49564912526,3.37635736269,131.80820345865
A-296,"(1S,2S)-1-methyl-4-(propan-2-yl)-7-oxabicyclo[2.2.1]heptan-2-ol","InChI=1S/C10H18O2/c1-7(2)10-5-4-9(3,12-10)8(11)6-10/h7-8,11H,4-6H2,1-3H3/t8-,9+,10-/m0/s1",IFQZADDJTDGGCP-AEJSXWLSSA-N,CC(C)[C@@]12CC[C@@](C)(O1)[C@@H](O)C2,-0.28809262900,0.00000000000,1,G1,170.25200,1.71490,46.91680,12,2,1,2,1,70,0,2,2,2,29.46,73.91984673204,2.25041987168,202.01526027982
A-297,3-[4-(propan-2-yl)phenyl]propanal,"InChI=1S/C12H16O/c1-10(2)12-7-5-11(6-8-12)4-3-9-13/h5-10H,3-4H2,1-2H3",RLEFOSDUWZYGOS-UHFFFAOYSA-N,CC(C)c1ccc(CCC=O)cc1,-3.30265678590,0.00000000000,1,G1,176.25900,2.94150,54.91600,13,1,0,1,4,70,1,0,0,1,17.07,79.78257790592,2.63632850216,258.95789509358
A-298,1-bromobutane,"InChI=1S/C4H9Br/c1-2-3-4-5/h2-4H2,1H3",MPPPKRYCTPRNTB-UHFFFAOYSA-N,CCCCBr,-2.19776418670,0.08611790665,2,G3,137.02000,2.18140,28.70200,5,0,0,1,2,32,0,0,0,0,0.00,41.70162497666,2.19060968716,11.11941547876
A-300,sodium hydrogen (2S)-2-dodecanamidopentanedioate,"InChI=1S/C17H31NO5.Na/c1-2-3-4-5-6-7-8-9-10-11-15(19)18-14(17(22)23)12-13-16(20)21;/h14H,2-13H2,1H3,(H,18,19)(H,20,21)(H,22,23);/q;+1/p-1/t14-;/m0./s1",IWIUXJGIDSGWDN-UQKRIMTDSA-M,[Na+].CCCCCCCCCCCC(=O)N[C@@H](CCC(O)=O)C([O-])=O,-3.60911048040,0.55434323240,2,G2,351.41900,-0.98920,85.65150,24,4,2,7,15,134,0,0,0,0,106.53,166.61462046902,0.00000000000,362.89006444664
A-301,[2-(1-propoxyethoxy)ethyl]benzene,"InChI=1S/C13H20O2/c1-3-10-14-12(2)15-11-9-13-7-5-4-6-8-13/h4-8,12H,3,9-11H2,1-2H3",FMYCPRQGKSONCP-UHFFFAOYSA-N,CCCOC(C)OCCc1ccccc1,-3.38419290360,0.00000000000,1,G1,208.30100,3.01830,61.80300,15,2,0,2,7,84,1,0,0,1,18.46,92.21308837929,2.10771172743,245.97268253247
A-304,"6,6-dimethoxy-2,5,5-trimethylhex-2-ene","InChI=1S/C11H22O2/c1-9(2)7-8-11(3,4)10(12-5)13-6/h7,10H,8H2,1-6H3",RDHNTAXPFZIMDN-UHFFFAOYSA-N,COC(OC)C(C)(C)CC=C(C)C,-3.33976160420,0.00000000000,1,G1,186.29500,2.98780,55.63500,13,2,0,2,5,78,0,0,0,0,18.46,81.92615959863,4.27253232993,162.92909232632
A-305,4-(1-methoxy-1-methylethyl)-1-methylcyclohexene,"InChI=1S/C11H20O/c1-9-5-7-10(8-6-9)11(2,3)12-4/h5,10H,6-8H2,1-4H3",YWJHQHJWHJRTAB-UHFFFAOYSA-N,COC(C)(C)C1CCC(=CC1)C,-3.29661357760,0.00000000000,1,G1,168.28000,3.15780,52.18600,12,1,0,1,2,70,0,0,1,1,9.23,75.80678321559,2.56177886489,179.44313396035
A-307,"cobalt(3+) ion 9-(2-carboxyphenyl)-6-(diethylamino)-N,N-diethyl-3H-xanthen-3-iminium bis(3-methyl-4-[(E)-2-(2-oxido-5-{[3-(propan-2-yloxy)propyl]sulfamoyl}phenyl)diazen-1-yl]-1-phenyl-1H-pyrazol-5-olate)","InChI=1S/C28H30N2O3.2C22H27N5O5S.Co/c1-5-29(6-2)19-13-15-23-25(17-19)33-26-18-20(30(7-3)8-4)14-16-24(26)27(23)21-11-9-10-12-22(21)28(31)32;2*1-15(2)32-13-7-12-23-33(30,31)18-10-11-20(28)19(14-18)24-25-21-16(3)26-27(22(21)29)17-8-5-4-6-9-17;/h9-18H,5-8H2,1-4H3;2*4-6,8-11,14-15,23,28-29H,7,12-13H2,1-3H3;/q;;;+3/p-3",WUVJFYRTCZOXAH-UHFFFAOYSA-K,[Co+3].CCN(CC)c1ccc2c(c1)[o+]c3cc(ccc3c2c4ccccc4C(O)=O)N(CC)CC.CC(C)OCCCN[S](=O)(=O)c5ccc([O-])c(c5)N=Nc6c(C)nn(c6[O-])c7ccccc7.CC(C)OCCCN[S](=O)(=O)c8ccc([O-])c(c8)N=Nc9c(C)nn(c9[O-])c%10ccccc%10,-3.23576224410,0.02580592520,2,G3,1445.57800,12.59564,375.05330,100,21,3,28,28,528,10,0,0,10,343.20,592.33332028446,0.00000020963,4439.27982799228
A-310,"1,4-dichloro-2-nitrobenzene",InChI=1S/C6H3Cl2NO2/c7-4-1-2-5(8)6(3-4)9(10)11/h1-3H,RZKKOBGFCAHLCZ-UHFFFAOYSA-N,[O-][N+](=O)c1cc(Cl)ccc1Cl,-3.36422539830,0.37524236031,3,G5,192.00100,2.90160,43.11640,11,2,0,5,1,58,1,0,0,1,43.14,72.69091129576,3.23220887031,300.63379922646
A-311,"3,7-dimethylnon-6-en-1-yn-3-ol","InChI=1S/C11H18O/c1-5-10(3)8-7-9-11(4,12)6-2/h2,8,12H,5,7,9H2,1,3-4H3/b10-8+",OJXKWJPEGDDDHH-CSKARUKUSA-N,CC/C(C)=C/CCC(C)(O)C#C,-2.30276788780,0.00000000000,1,G1,166.26400,2.50710,52.73880,12,1,1,1,4,68,0,0,0,0,20.23,75.49252828367,3.79112545813,193.53987717794
A-314,3-(trimethoxysilyl)propyl 2-methylprop-2-enoate,"InChI=1S/C10H20O5Si/c1-9(2)10(11)15-7-6-8-16(12-3,13-4)14-5/h1,6-8H2,2-5H3",XDLMVUHYZWKMMD-UHFFFAOYSA-N,CO[Si](CCCOC(=O)C(C)=C)(OC)OC,-3.47798072240,2.21089530755,3,G4,248.35100,1.37390,61.97800,16,5,0,6,8,94,0,0,0,0,53.99,97.70080287539,3.87608416660,229.09922555894
A-316,"4,4'-Isopropylidenediphenol, oligomeric reaction products with 1-chloro-2,3-epoxypropane, esters with acrylic acid","InChI=1S/C15H16O2.C3H5ClO.C3H4O2/c1-15(2,11-3-7-13(16)8-4-11)12-5-9-14(17)10-6-12;4-1-3-2-5-3;1-2-3(4)5/h3-10,16-17H,1-2H3;3H,1-2H2;2H,1H2,(H,4,5)",RYSXGWPNVZQNNB-UHFFFAOYSA-N,CC(C)(c1ccc(O)cc1)c2ccc(O)cc2.OC(=O)C=C.ClCC3CO3,-3.68044496330,0.38551575460,2,G3,392.87900,4.30470,106.63440,27,4,3,6,4,146,2,1,1,3,90.29,164.05023928950,0.00000029823,671.74211585438
A-319,"1-phenyl-2,5-dihydro-1H-pyrrole-2,5-dione",InChI=1S/C10H7NO2/c12-9-6-7-10(13)11(9)8-4-2-1-3-5-8/h1-7H,HIDBROSJWZYGSZ-UHFFFAOYSA-N,O=C1C=CC(=O)N1c2ccccc2,-2.32731755610,0.00000000000,1,G1,173.17100,1.11600,48.07500,13,2,0,3,1,64,1,0,1,2,37.38,75.27861526166,2.38100652868,363.17103614746
A-320,"5-methyl-2-(4-methylphenyl)-2,3-dihydro-1H-pyrazol-3-one","InChI=1S/C11H12N2O/c1-8-3-5-10(6-4-8)13-11(14)7-9(2)12-13/h3-6H,7H2,1-2H3",IOQOLGUXWSBWHR-UHFFFAOYSA-N,Cc1ccc(cc1)N2N=C(C)CC2=O,-2.36566798800,0.00000000000,1,G1,188.23000,2.10762,56.39100,14,2,0,3,1,72,1,0,1,2,32.67,83.03709681429,2.31549820896,392.25348789848
A-321,(4-formylphenyl)boronic acid,"InChI=1S/C7H7BO3/c9-5-6-1-3-7(4-2-6)8(10)11/h1-5,10-11H",VXWBQOJISHAKKM-UHFFFAOYSA-N,OB(O)c1ccc(C=O)cc1,-2.26738466720,0.00000000000,1,G1,149.94200,-0.82110,41.65510,11,3,2,4,2,56,1,0,0,1,57.53,64.43893885482,2.90982279990,242.36752828045
A-322,4-methyl-4-phenylpentan-2-one,"InChI=1S/C12H16O/c1-10(13)9-12(2,3)11-7-5-4-6-8-11/h4-8H,9H2,1-3H3",PFDVPCSDZXZDMF-UHFFFAOYSA-N,CC(=O)CC(C)(C)c1ccccc1,-2.33766628300,0.00000000000,1,G1,176.25900,2.94330,54.76600,13,1,0,1,3,70,1,0,0,1,17.07,79.78257790592,2.87081313390,285.25260328896
A-323,pentyl propanoate,"InChI=1S/C8H16O2/c1-3-5-6-7-10-8(9)4-2/h3-7H2,1-2H3",TWSRVQVEYJNFKQ-UHFFFAOYSA-N,CCCCCOC(=O)CC,-2.25052240400,0.48526120200,2,G3,144.21400,2.12980,40.77500,10,2,0,2,5,60,0,0,0,0,26.30,62.56891315816,2.96177560618,89.25838096618
A-324,"1-chloro-1,2,2-trifluoroethene",InChI=1S/C2ClF3/c3-1(4)2(5)6,UUAGAQFQZIEFAH-UHFFFAOYSA-N,FC(F)=C(F)Cl,-2.16095429790,0.37397823250,2,G3,116.46900,2.26030,16.20300,6,0,0,4,0,36,0,0,0,0,0.00,37.21446254570,3.67594876456,58.86238311218
A-326,"Dodecan-1-ol, ethoxylated","InChI=1S/C14H30O2/c1-2-3-4-5-6-7-8-9-10-11-13-16-14-12-15/h15H,2-14H2,1H3",SFNALCNOMXIBKG-UHFFFAOYSA-N,CCCCCCCCCCCCOCCO,-1.45937740780,0.00000000000,1,G1,230.39200,3.91620,69.74880,16,2,1,2,13,98,0,0,0,0,29.46,101.39127749669,2.82826241264,101.30296890881
A-328,11-aminoundecanoic acid,"InChI=1S/C11H23NO2/c12-10-8-6-4-2-1-3-5-7-9-11(13)14/h1-10,12H2,(H,13,14)",GUOSQNAUYHMCRU-UHFFFAOYSA-N,NCCCCCCCCCCC(O)=O,-2.40077536190,0.19637331189,5,G5,201.31000,2.54060,58.24320,14,2,2,3,10,84,0,0,0,0,63.32,86.68431872105,2.88406461471,137.24922110380
A-329,"N',N'''''-hexane-1,6-diylbis[N-(4-chlorophenyl)(imidodicarbonimidic diamide)]","InChI=1S/C22H30Cl2N10/c23-15-5-9-17(10-6-15)31-21(27)33-19(25)29-13-3-1-2-4-14-30-20(26)34-22(28)32-18-11-7-16(24)8-12-18/h5-12H,1-4,13-14H2,(H5,25,27,29,31,33)(H5,26,28,30,32,34)",GHXZTYHSJHQHIJ-UHFFFAOYSA-N,NC(Nc1ccc(Cl)cc1)=NC(N)=NCCCCCCN=C(N)N=C(N)Nc2ccc(Cl)cc2,-2.80059508760,0.00000000000,1,G1,505.45800,3.33660,144.84100,34,2,6,12,9,182,2,0,0,2,177.58,208.78502802200,1.60550105226,931.48572058594
A-331,(5Z)-5-ethylidenebicyclo[2.2.1]hept-2-ene,"InChI=1S/C9H12/c1-2-8-5-7-3-4-9(8)6-7/h2-4,7,9H,5-6H2,1H3/b8-2+",OJOWICOBYCXEKR-KRXBUXKQSA-N,C\C=C1/CC2CC1C=C2,-3.17679641480,0.47685179260,2,G3,120.19500,2.52870,39.11100,9,0,0,0,0,48,0,1,2,2,0.00,56.26791957158,2.28902962931,174.47733175671
A-332,"1,3-diethyl-1,3-diphenylurea","InChI=1S/C17H20N2O/c1-3-18(15-11-7-5-8-12-15)17(20)19(4-2)16-13-9-6-10-14-16/h5-14H,3-4H2,1-2H3",PZIMIYVOZBTARW-UHFFFAOYSA-N,CCN(C(=O)N(CC)c1ccccc1)c2ccccc2,-3.52562779620,0.00000000000,1,G1,268.36000,4.15940,84.32000,20,1,0,3,4,104,2,0,0,2,23.55,119.99439733799,2.27557604915,489.93116659985
A-334,butyl 2-aminobenzoate,"InChI=1S/C11H15NO2/c1-2-3-8-14-11(13)9-6-4-5-7-10(9)12/h4-7H,2-3,8,12H2,1H3",HUIYGGQINIVDNW-UHFFFAOYSA-N,CCCCOC(=O)c1ccccc1N,-3.38302052620,0.00000000000,1,G1,193.24600,2.22570,56.04490,14,3,1,3,4,76,1,0,0,1,52.32,83.87107171804,2.56446569948,309.91077056341
A-338,benzyl 2-hydroxybenzoate,"InChI=1S/C14H12O3/c15-13-9-5-4-8-12(13)14(16)17-10-11-6-2-1-3-7-11/h1-9,15H,10H2",ZCTQGTTXIYCGGC-UHFFFAOYSA-N,Oc1ccccc1C(=O)OCc2ccccc2,-4.41392240590,0.00000000000,1,G1,228.24700,2.74920,63.66830,17,3,1,3,3,86,2,0,0,2,46.53,99.28768263610,2.01283680377,505.88558878376
A-339,tetrabutylstannane,"InChI=1S/4C4H9.Sn/c4*1-3-4-2;/h4*1,3-4H2,2H3;",AFCAKJKUYFLYFK-UHFFFAOYSA-N,CCCC[Sn](CCCC)(CCCC)CCCC,-4.59606577200,0.98020281915,2,G2,347.17500,6.63560,84.61400,17,0,0,1,12,104,0,0,0,0,0.00,114.83073519399,4.39149124830,116.09439334885
A-342,magnesium(2+) ion dimethanolate,InChI=1S/2CH3O.Mg/c2*1-2;/h2*1H3;/q2*-1;+2,CRGZYKWWYNQGEC-UHFFFAOYSA-N,[Mg++].C[O-].C[O-],-3.99436995120,2.24721747771,5,G4,86.37300,-2.42780,17.60200,5,2,0,3,0,28,0,0,0,0,46.12,47.96838760824,-0.00000001333,7.60964047444
A-343,cadmium,InChI=1S/Cd/q+2,WLZRMCYVCSSEQC-UHFFFAOYSA-N,[Cd++],-4.11129342210,0.28889570830,2,G3,112.41200,-0.00250,0.00000,1,0,0,1,0,0,0,0,0,0,0.00,27.65102933347,0.00000000000,0.00000000000
A-347,"6,8-bis(phenylamino)naphthalene-1-sulfonic acid","InChI=1S/C22H18N2O3S/c25-28(26,27)21-13-7-8-16-14-19(23-17-9-3-1-4-10-17)15-20(22(16)21)24-18-11-5-2-6-12-18/h1-15,23-24H,(H,25,26,27)",USFSONWQSVCJBO-UHFFFAOYSA-N,O[S](=O)(=O)c1cccc2cc(Nc3ccccc3)cc(Nc4ccccc4)c12,-4.67250290660,0.00000000000,1,G1,390.46400,5.57370,113.21200,28,4,3,6,5,140,4,0,0,4,78.43,162.95561644062,1.90027066436,1224.86405433483
A-348,di-tert-butyl sec-butylidene diperoxide,"InChI=1S/C12H26O4/c1-9-12(8,15-13-10(2,3)4)16-14-11(5,6)7/h9H2,1-8H3",HQOVXPHOJANJBR-UHFFFAOYSA-N,CCC(C)(OOC(C)(C)C)OOC(C)(C)C,-4.45076092010,0.00000000000,1,G1,234.33600,3.60600,62.54200,16,4,0,4,5,98,0,0,0,0,36.92,99.06638583570,4.21219128953,182.04474996131
A-349,"1,1'-sulfanediyldibenzene",InChI=1S/C12H10S/c1-3-7-11(8-4-1)13-12-9-5-2-6-10-12/h1-10H,LTYMSROWYAPPGB-UHFFFAOYSA-N,S(c1ccccc1)c2ccccc2,-4.36060786860,0.00000000000,1,G1,186.27900,3.83780,57.00700,13,1,0,1,2,64,2,0,0,2,0.00,82.61160735093,2.16147575058,315.89864866417
A-350,"4-[(1-amino-4-hydroxy-9,10-dioxo-9,10-dihydroanthracen-2-yl)oxy]-N-(3-ethoxypropyl)benzene-1-sulfonamide","InChI=1S/C25H24N2O7S/c1-2-33-13-5-12-27-35(31,32)16-10-8-15(9-11-16)34-20-14-19(28)21-22(23(20)26)25(30)18-7-4-3-6-17(18)24(21)29/h3-4,6-11,14,27-28H,2,5,12-13,26H2,1H3",ALXCWDABTQQKAH-UHFFFAOYSA-N,CCOCCCN[S](=O)(=O)c1ccc(Oc2cc(O)c3C(=O)c4ccccc4C(=O)c3c2N)cc1,-4.78747009570,0.00000000000,1,G1,496.54100,3.24700,128.64070,35,8,3,10,9,182,3,0,1,4,145.02,202.08925236321,1.56313900421,1400.05789542488
A-352,"tetrachloro-1,3-dihydro-2-benzofuran-1,3-dione",InChI=1S/C8Cl4O3/c9-3-1-2(8(14)15-7(1)13)4(10)6(12)5(3)11,AUHHYELHRWCWEZ-UHFFFAOYSA-N,Clc1c(Cl)c(Cl)c2C(=O)OC(=O)c2c1Cl,-4.55311961120,1.96786833795,5,G4,285.89700,3.61080,56.22800,15,3,0,7,0,78,1,0,1,2,43.37,103.80511053188,2.92256890936,464.34362527238
A-355,"calcium 4,5-dichloro-2-[(E)-2-[3-methyl-5-oxo-1-(3-sulfonatophenyl)-4,5-dihydro-1H-pyrazol-4-yl]diazen-1-yl]benzene-1-sulfonate","InChI=1S/C16H12Cl2N4O7S2.Ca/c1-8-15(20-19-13-6-11(17)12(18)7-14(13)31(27,28)29)16(23)22(21-8)9-3-2-4-10(5-9)30(24,25)26;/h2-7,15H,1H3,(H,24,25,26)(H,27,28,29);/q;+2/p-2",KJAXOZTWNHRZQG-UHFFFAOYSA-L,[Ca++].CC1=NN(c2cccc(c2)[S]([O-])(=O)=O)C(=O)C1N=Nc3cc(Cl)c(Cl)cc3[S]([O-])(=O)=O,-3.83908406090,0.00000000000,1,G1,545.39500,2.29580,113.48340,32,10,0,16,5,164,2,0,1,3,171.79,222.15559921952,0.00000362999,1364.43694284533
A-356,ethanol,"InChI=1S/C2H6O/c1-2-3/h3H,2H2,1H3",LFQSCWFLJHTTHZ-UHFFFAOYSA-N,CCO,1.23366821790,0.09686284934,3,G5,46.06900,-0.00140,12.75980,3,1,1,1,0,20,0,0,0,0,20.23,19.89842689442,1.63299316186,2.75488750216
A-359,"1,4-dimethoxybenzene","InChI=1S/C8H10O2/c1-9-7-3-5-8(10-2)6-4-7/h3-6H,1-2H3",OHBQPCCCRFSCAX-UHFFFAOYSA-N,COc1ccc(OC)cc1,-2.24553152790,0.02241819955,2,G3,138.16600,1.70380,39.54600,10,2,0,2,2,54,1,0,0,1,18.46,60.38837780730,2.79725126297,167.91749419417
A-360,[2-(cyclohexyloxy)ethyl]benzene,"InChI=1S/C14H20O/c1-3-7-13(8-4-1)11-12-15-14-9-5-2-6-10-14/h1,3-4,7-8,14H,2,5-6,9-12H2",HLMIVULQFMULRM-UHFFFAOYSA-N,C1CCC(CC1)OCCc2ccccc2,-2.41809005480,0.00000000000,1,G1,204.31300,3.57840,62.97100,15,1,0,1,4,82,1,1,1,2,9.23,92.45865411065,1.65853705614,261.92700629389
A-362,"cobalt(2+);2-ethyl-2,5-dimethylhexanoate","InChI=1S/2C10H20O2.Co/c2*1-5-10(4,9(11)12)7-6-8(2)3;/h2*8H,5-7H2,1-4H3,(H,11,12);/q;;+2/p-2",KOKXAPDKXDSOEG-UHFFFAOYSA-L,[Co++].CCC(C)(CCC(C)C)C([O-])=O.CCC(C)(CCC(C)C)C([O-])=O,-2.71601740730,0.00000000000,1,G1,401.45300,3.17510,94.95400,25,4,0,5,10,151,0,0,0,0,80.26,164.91052754084,-0.00000037231,345.89244295047
A-363,"(2E)-1-(2,6,6-trimethylcyclohex-3-en-1-yl)but-2-en-1-one","InChI=1S/C13H20O/c1-5-7-11(14)12-10(2)8-6-9-13(12,3)4/h5-8,10,12H,9H2,1-4H3/b7-5+",XEJGJTYRUWUFFD-FNORWQNLSA-N,C/C=C/C(=O)C1C(C)C=CCC1(C)C,-3.39636650070,0.00000000000,1,G1,192.30200,3.37000,60.01300,14,1,0,1,2,78,0,0,1,1,17.07,86.89504128273,2.92796590776,270.96015029037
A-364,"1,4-bis(oxiran-2-ylmethyl) benzene-1,4-dicarboxylate","InChI=1S/C14H14O6/c15-13(19-7-11-5-17-11)9-1-2-10(4-3-9)14(16)20-8-12-6-18-12/h1-4,11-12H,5-8H2",NEPKLUNSRVEBIX-UHFFFAOYSA-N,O=C(OCC1CO1)c2ccc(cc2)C(=O)OCC3CO3,-3.55796005560,0.00000000000,1,G1,278.26000,0.79780,66.48700,20,6,0,6,6,106,1,2,2,3,77.66,115.11650284573,1.51638902469,453.90034291161
A-365,dec-4-enal,"InChI=1S/C10H18O/c1-2-3-4-5-6-7-8-9-10-11/h6-7,10H,2-5,8-9H2,1H3/b7-6+",CWRKZMLUDFBPAO-VOTSOKGWSA-N,CCCCC/C=C/CCC=O,-3.30174289400,0.00000000000,1,G1,154.25300,3.10200,48.58000,11,1,0,1,7,64,0,0,0,0,17.07,69.49564912526,2.96547964355,105.44040467375