ID,Name,InChI,InChIKey,SMILES,Solubility,SD,Ocurrences,Group,MolWt,MolLogP,MolMR,HeavyAtomCount,NumHAcceptors,NumHDonors,NumHeteroatoms,NumRotatableBonds,NumValenceElectrons,NumAromaticRings,NumSaturatedRings,NumAliphaticRings,RingCount,TPSA,LabuteASA,BalabanJ,BertzCT
A-2005,"2,2'-oxybis(5,5-dimethyl-1,3,2-dioxaphosphinane) 2,2'-disulfide","InChI=1S/C10H20O5P2S2/c1-9(2)5-11-16(18,12-6-9)15-17(19)13-7-10(3,4)8-14-17/h5-8H2,1-4H3",GAUFKBQSTGCCOC-UHFFFAOYSA-N,CC1(C)CO[P](=S)(OC1)O[P]2(=S)OCC(C)(C)CO2,-5.39338339450,0.00000000000,1,G1,346.34700,3.59800,81.02500,19,7,0,9,2,112,0,2,2,2,46.15,124.33965010430,1.98037287588,383.20096571080
A-2007,1-methyl-4-(propan-2-yl)cyclohex-1-ene,"InChI=1S/C10H18/c1-8(2)10-6-4-9(3)5-7-10/h4,8,10H,5-7H2,1-3H3",FAMJUFMHYAFYNU-UHFFFAOYSA-N,CC(C)C1CCC(=CC1)C,-5.01034393680,0.00000000000,1,G1,138.25400,3.38880,45.93600,10,0,0,0,1,58,0,0,1,1,0.00,64.32829587169,2.41810917562,130.97373660251
A-2008,"6-({bis[(5-carboxypentyl)amino]-1,3,5-triazin-2-yl}amino)hexanoic acid","InChI=1S/C21H36N6O6/c28-16(29)10-4-1-7-13-22-19-25-20(23-14-8-2-5-11-17(30)31)27-21(26-19)24-15-9-3-6-12-18(32)33/h1-15H2,(H,28,29)(H,30,31)(H,32,33)(H3,22,23,24,25,26,27)",BKKWPPMEXIXECW-UHFFFAOYSA-N,OC(=O)CCCCCNc1nc(NCCCCCC(O)=O)nc(NCCCCCC(O)=O)n1,-2.54236130790,1.87347724296,4,G4,468.55500,3.04230,123.60750,33,9,6,12,21,186,1,0,0,1,186.66,193.17615922902,2.50543209008,625.66022166853
A-2009,2-methyloctyl prop-2-enoate,"InChI=1S/C13H24O2/c1-4-13(14)15-11-9-7-5-6-8-10-12(2)3/h4,12H,1,5-11H2,2-3H3",LVGFPWDANALGOY-UHFFFAOYSA-N,CC(C)CCCCCCCOC(=O)C=C,-5.19991269750,0.00000000000,1,G1,212.33300,3.71220,63.69600,15,2,0,2,9,88,0,0,0,0,26.30,93.70402069796,3.04901286860,173.37476639379
A-2011,2-methylundecanal,"InChI=1S/C12H24O/c1-3-4-5-6-7-8-9-10-12(2)11-13/h11-12H,3-10H2,1-2H3",NFAVNWJJYQAGNB-UHFFFAOYSA-N,CCCCCCCCCC(C)C=O,-5.15163617800,0.00000000000,1,G1,184.32300,3.96210,57.83800,13,1,0,1,9,78,0,0,0,0,17.07,82.91513638624,2.94816788796,109.69210414479
A-2012,"4-{bis[4-(dimethylamino)phenyl]methyl}-N,N-dimethylaniline","InChI=1S/C25H31N3/c1-26(2)22-13-7-19(8-14-22)25(20-9-15-23(16-10-20)27(3)4)21-11-17-24(18-12-21)28(5)6/h7-18,25H,1-6H3",OAZWDJGLIYNYMU-UHFFFAOYSA-N,CN(C)c1ccc(cc1)C(c2ccc(cc2)N(C)C)c3ccc(cc3)N(C)C,-5.45839841270,0.00000000000,1,G1,373.54400,5.06480,123.25200,28,3,0,3,6,146,3,0,0,3,9.72,169.37968734301,2.04435252597,754.14754575034
A-2013,digadolinium(3+) ion trioxalate,"InChI=1S/3C2H2O4.2Gd/c3*3-1(4)2(5)6;;/h3*(H,3,4)(H,5,6);;/q;;;2*+3/p-6",SQORATIMOBOFKR-UHFFFAOYSA-H,[Gd+3].[Gd+3].[O-]C(=O)C([O-])=O.[O-]C(=O)C([O-])=O.[O-]C(=O)C([O-])=O,-5.64840054820,0.33020531434,6,G5,578.55400,-10.54140,30.04200,20,12,0,14,0,112,0,0,0,0,240.78,172.68112032298,-0.00000005357,281.08518696265
A-2015,yttrium,InChI=1S/Y,VWQVUPCCIRVNHF-UHFFFAOYSA-N,[Y],-4.83498771890,0.00000000000,1,G1,88.90600,-0.00250,0.00000,1,0,0,1,0,3,0,0,0,0,0.00,32.75214013925,0.00000000000,0.00000000000
A-2016,"1,8-bis(phenylsulfanyl)-9,10-dihydroanthracene-9,10-dione",InChI=1S/C26H16O2S2/c27-25-19-13-7-15-21(29-17-9-3-1-4-10-17)23(19)26(28)24-20(25)14-8-16-22(24)30-18-11-5-2-6-12-18/h1-16H,CNRPDCKHCGUKDK-UHFFFAOYSA-N,O=C1c2cccc(Sc3ccccc3)c2C(=O)c4c(Sc5ccccc5)cccc14,-5.51733504310,0.00000000000,1,G1,424.54600,6.76440,120.87900,30,4,0,4,4,144,4,0,1,5,34.14,182.89600306377,1.62149138505,1167.97429211076
A-2017,"praseodymium(III,IV) oxide",InChI=1S/11O.6Pr/q11*-2;6*+3,HPZIIFVSYNLWNX-UHFFFAOYSA-N,[O--].[O--].[O--].[O--].[O--].[O--].[O--].[O--].[O--].[O--].[O--].[Pr+3].[Pr+3].[Pr+3].[Pr+3].[Pr+3].[Pr+3],-5.90540786450,0.00000000000,1,G1,1021.43700,-1.30680,7.55150,17,0,0,17,0,88,0,0,0,0,313.50,298.38664183103,0.00000000000,15.92334549192
A-2019,"4,4'-cyclohexane-1,1-diylbis(2-methylphenol)","InChI=1S/C20H24O2/c1-14-12-16(6-8-18(14)21)20(10-4-3-5-11-20)17-7-9-19(22)15(2)13-17/h6-9,12-13,21-22H,3-5,10-11H2,1-2H3",SVOBELCYOCEECO-UHFFFAOYSA-N,Cc1cc(ccc1O)C2(CCCCC2)c3ccc(O)c(C)c3,-5.37152230630,0.00000000000,1,G1,296.41000,4.96484,89.55260,22,2,2,2,2,116,2,1,1,3,40.46,131.99067059160,2.14801656242,628.60175411733
A-2022,calcium 3-hydroxy-4-[(E)-2-(4-methyl-2-sulfonatophenyl)diazen-1-yl]naphthalene-2-carboxylate,"InChI=1S/C18H14N2O6S.Ca/c1-10-6-7-14(15(8-10)27(24,25)26)19-20-16-12-5-3-2-4-11(12)9-13(17(16)21)18(22)23;/h2-9,19H,1H3,(H,22,23)(H,24,25,26);/q;+2/p-2/b20-16-;",WANIKCLUTOABTP-LRZQPWDCSA-L,[Ca++].Cc1ccc(N\N=C\2C(=O)C(=Cc3ccccc23)C([O-])=O)c(c1)[S]([O-])(=O)=O,-5.54864222230,0.19010562085,2,G3,424.44700,0.05052,99.48890,28,8,1,10,4,138,2,0,1,3,138.79,190.25971847348,0.00000280333,1138.51487454637
A-2025,"1,4-bis(2-ethylhexyl) (2E)-but-2-enedioate","InChI=1S/C20H36O4/c1-5-9-11-17(7-3)15-23-19(21)13-14-20(22)24-16-18(8-4)12-10-6-2/h13-14,17-18H,5-12,15-16H2,1-4H3/b14-13+",ROPXFXOUUANXRR-BUHFOSPRSA-N,CCCCC(CC)COC(=O)\C=C\C(=O)OCC(CC)CCCC,-5.45657525670,0.96223762835,2,G2,340.50400,5.06180,97.67000,24,4,0,4,14,140,0,0,0,0,52.60,147.53368282828,4.03940423571,328.65034930571
A-2026,"2,2-dimethylpropane-1,3-diyl dibenzoate","InChI=1S/C19H20O4/c1-19(2,13-22-17(20)15-9-5-3-6-10-15)14-23-18(21)16-11-7-4-8-12-16/h3-12H,13-14H2,1-2H3",DYJIIMFHSZKBDY-UHFFFAOYSA-N,CC(C)(COC(=O)c1ccccc1)COC(=O)c2ccccc2,-5.42278035860,0.00940178190,2,G3,312.36500,3.72660,87.23000,23,4,0,4,6,120,2,0,0,2,52.60,135.59322678544,1.82362674034,590.08453477101
A-2029,calcium bis(metaphosphate),"InChI=1S/Ca.2H3O3P/c;2*1-4(2)3/h;2*4H,(H2,1,2,3)/q+2;;/p-2",JBCDXVJTWRWCSR-UHFFFAOYSA-L,[Ca++].O[PH]([O-])=O.O[PH]([O-])=O,-5.25314975500,0.00000000000,1,G1,202.05200,-2.92340,28.19460,9,4,2,9,0,52,0,0,0,0,120.72,82.42893374467,-0.00000007200,69.05865002596
A-2030,(ethoxymethoxy)cyclododecane,"InChI=1S/C15H30O2/c1-2-16-14-17-15-12-10-8-6-4-3-5-7-9-11-13-15/h15H,2-14H2,1H3",VQNUNMBDOKEZHS-UHFFFAOYSA-N,CCOCOC1CCCCCCCCCCC1,-5.33531996770,0.00000000000,1,G1,242.40300,4.67030,72.15300,17,2,0,2,4,102,0,1,1,1,18.46,107.06969993487,2.17098657202,147.00080941905
A-2032,"2,6-dibromo-4-[2-(3,5-dibromo-4-hydroxyphenyl)propan-2-yl]phenol","InChI=1S/C15H12Br4O2/c1-15(2,7-3-9(16)13(20)10(17)4-7)8-5-11(18)14(21)12(19)6-8/h3-6,20-21H,1-2H3",VEORPZCZECFIRK-UHFFFAOYSA-N,CC(C)(c1cc(Br)c(O)c(Br)c1)c2cc(Br)c(O)c(Br)c2,-5.69410641110,0.63589704234,7,G4,543.87500,6.47370,99.14160,21,2,2,6,2,112,2,0,0,2,40.46,156.64198159571,2.61490702938,605.30518479146
A-2033,bis(3-methylbutyl) phthalate,"InChI=1S/C18H26O4/c1-13(2)9-11-21-17(19)15-7-5-6-8-16(15)18(20)22-12-10-14(3)4/h5-8,13-14H,9-12H2,1-4H3",JANBFCARANRIKJ-UHFFFAOYSA-N,CC(C)CCOC(=O)c1ccccc1C(=O)OCCC(C)C,-5.44489891060,0.00000000000,1,G1,306.40200,4.09240,85.91700,22,4,0,4,8,122,1,0,0,1,52.60,132.36084315136,2.67631104828,446.61545263663
A-2035,zinc bis(diethyldithiocarbamate),"InChI=1S/2C5H11NS2.Zn/c2*1-3-6(4-2)5(7)8;/h2*3-4H2,1-2H3,(H,7,8);/q;;+2/p-2",RKQOSDAEEGPRER-UHFFFAOYSA-L,[Zn++].CCN(CC)C([S-])=S.CCN(CC)C([S-])=S,-5.53333311660,0.00000000000,1,G1,361.94200,2.31750,85.76800,17,4,0,7,4,96,0,0,0,0,6.48,140.46025041511,-0.00000021778,184.48257857242
A-2036,tetraphenyl m-phenylene bis(phosphate),"InChI=1S/C30H24O8P2/c31-39(33-25-14-5-1-6-15-25,34-26-16-7-2-8-17-26)37-29-22-13-23-30(24-29)38-40(32,35-27-18-9-3-10-19-27)36-28-20-11-4-12-21-28/h1-24H",OWICEWMBIBPFAH-UHFFFAOYSA-N,O=[P](Oc1ccccc1)(Oc2ccccc2)Oc3cccc(O[P](=O)(Oc4ccccc4)Oc5ccccc5)c3,-5.73807200680,1.44781278118,4,G4,574.46200,8.97640,151.19100,40,8,0,10,12,202,5,0,0,5,89.52,231.44027266974,1.40603404177,1391.50701229804
A-2037,9H-carbazole,"InChI=1S/C12H9N/c1-3-7-11-9(5-1)10-6-2-4-8-12(10)13-11/h1-8,13H",UJOBWOGCFQCDNV-UHFFFAOYSA-N,[nH]1c2ccccc2c3ccccc13,-5.21042761950,0.12885035631,3,G5,167.21100,3.32110,55.80470,13,0,1,1,0,62,3,0,0,3,15.79,76.00389260398,2.64243825991,512.88413590991
A-2039,"1,2-dicyclohexyl benzene-1,2-dicarboxylate","InChI=1S/C20H26O4/c21-19(23-15-9-3-1-4-10-15)17-13-7-8-14-18(17)20(22)24-16-11-5-2-6-12-16/h7-8,13-16H,1-6,9-12H2",VOWAEIGWURALJQ-UHFFFAOYSA-N,O=C(OC1CCCCC1)c2ccccc2C(=O)OC3CCCCC3,-5.51260554210,0.29780277105,2,G3,330.42400,4.66560,91.01900,24,4,0,4,4,130,1,2,2,3,52.60,143.07906507309,1.66579488437,517.75651007032
A-2041,Prokan,"InChI=1S/C23H32O4/c1-14(24)23(27-15(2)25)12-9-20-18-6-5-16-13-17(26)7-10-21(16,3)19(18)8-11-22(20,23)4/h13,18-20H,5-12H2,1-4H3",VTHUYJIXSMGYOQ-UHFFFAOYSA-N,CC(=O)OC1(CCC2C3CCC4=CC(=O)CCC4(C)C3CCC12C)C(C)=O,-5.56681073270,0.00000000000,1,G1,372.50500,4.40920,101.88800,27,4,0,4,2,148,0,3,4,4,60.44,161.65316142789,1.70180102916,736.66038005707
A-2042,"(9Z)-N,N-bis(2-hydroxyethyl)octadec-9-enamide","InChI=1S/C22H43NO3/c1-2-3-4-5-6-7-8-9-10-11-12-13-14-15-16-17-22(26)23(18-20-24)19-21-25/h9-10,24-25H,2-8,11-21H2,1H3/b10-9+",LPMBTLLQQJBUOO-MDZDMXLPSA-N,CCCCCCCC/C=C/CCCCCCCC(=O)N(CCO)CCO,-5.56772021200,0.00000000000,1,G1,369.59000,4.83710,110.20360,26,3,2,4,19,154,0,0,0,0,60.77,161.22325567261,3.39302356340,325.34904955948
A-2043,"1,3-diethyl 2-({4-[3-ethoxy-2-(ethoxycarbonyl)-3-oxoprop-1-en-1-yl]phenyl}methylidene)propanedioate","InChI=1S/C22H26O8/c1-5-27-19(23)17(20(24)28-6-2)13-15-9-11-16(12-10-15)14-18(21(25)29-7-3)22(26)30-8-4/h9-14H,5-8H2,1-4H3",YUOKTNQLLUHUEK-UHFFFAOYSA-N,CCOC(=O)C(=Cc1ccc(cc1)C=C(C(=O)OCC)C(=O)OCC)C(=O)OCC,-5.62163526920,0.00000000000,1,G1,418.44200,2.70580,108.92800,30,8,0,8,10,162,1,0,0,1,105.20,174.99154020368,3.21612925340,709.04421710799
A-2045,2-phenylethyl (2E)-3-phenylprop-2-enoate,"InChI=1S/C17H16O2/c18-17(12-11-15-7-3-1-4-8-15)19-14-13-16-9-5-2-6-10-16/h1-12H,13-14H2/b12-11+",MJQVZIANGRDJBT-VAWYXSNFSA-N,O=C(OCCc1ccccc1)/C=C/c2ccccc2,-5.40193962740,0.14074915555,2,G3,252.31300,3.48570,76.58100,19,2,0,2,5,96,2,0,0,2,26.30,112.89867219491,1.74678593482,529.70322745753
A-2046,N-(2-hydroxyethyl)octadecanamide,"InChI=1S/C20H41NO2/c1-2-3-4-5-6-7-8-9-10-11-12-13-14-15-16-17-20(23)21-18-19-22/h22H,2-19H2,1H3,(H,21,23)",OTGQIQQTPXJQRG-UHFFFAOYSA-N,CCCCCCCCCCCCCCCCCC(=O)NCCO,-5.51528158140,0.00000000000,1,G1,327.55300,5.35640,99.64150,23,2,2,3,18,138,0,0,0,0,49.33,144.17876923721,3.03622991197,243.79617258030
A-2047,N-(4-chlorophenyl)-3-hydroxy-2-naphthamide,"InChI=1S/C17H12ClNO2/c18-13-5-7-14(8-6-13)19-17(21)15-9-11-3-1-2-4-12(11)10-16(15)20/h1-10,20H,(H,19,21)",OHAXNCGNVGGWSO-UHFFFAOYSA-N,Oc1cc2ccccc2cc1C(=O)Nc3ccc(Cl)cc3,-5.47383864270,0.00000000000,1,G1,297.74100,4.45110,85.01800,21,2,2,4,2,104,3,0,0,3,49.33,126.34398823442,1.93425794788,812.63798558674
A-2049,"bis(1,2,2,6,6-pentamethylpiperidin-4-yl) 2-butyl-2-[(3,5-di-tert-butyl-4-hydroxyphenyl)methyl]propanedioate","InChI=1S/C42H72N2O5/c1-18-19-20-42(34(46)48-29-24-38(8,9)43(16)39(10,11)25-29,35(47)49-30-26-40(12,13)44(17)41(14,15)27-30)23-28-21-31(36(2,3)4)33(45)32(22-28)37(5,6)7/h21-22,29-30,45H,18-20,23-27H2,1-17H3",FLPKSBDJMLUTEX-UHFFFAOYSA-N,CCCCC(Cc1cc(c(O)c(c1)C(C)(C)C)C(C)(C)C)(C(=O)OC2CC(C)(C)N(C)C(C)(C)C2)C(=O)OC3CC(C)(C)N(C)C(C)(C)C3,-5.83572036880,0.15051499785,2,G3,685.04700,9.09550,201.23880,49,7,1,7,9,280,1,2,2,3,79.31,299.42169268242,2.19989939071,1232.75531866071
A-2053,2-bromo-N-[4-chloro-2-(2-fluorobenzoyl)phenyl]acetamide,"InChI=1S/C15H10BrClFNO2/c16-8-14(20)19-13-6-5-9(17)7-11(13)15(21)10-3-1-2-4-12(10)18/h1-7H,8H2,(H,19,20)",WUZSFIKFFXBHMB-UHFFFAOYSA-N,Fc1ccccc1C(=O)c2cc(Cl)ccc2NC(=O)CBr,-5.56934578610,0.00751908740,2,G3,370.60500,4.04350,83.70820,21,2,1,6,4,108,2,0,0,2,46.17,133.79257928790,2.46830465931,705.82301485145
A-2055,Cedryl acetate,"InChI=1S/C17H28O2/c1-11-6-7-13-15(3,4)14-10-17(11,13)9-8-16(14,5)19-12(2)18/h11,13-14H,6-10H2,1-5H3/t11-,13+,14?,16?,17?/m1/s1",HQKQRXZEXPXXIG-GXTNNVKYSA-N,C[C@@H]1CC[C@H]2C(C)(C)C3CC12CCC3(C)OC(C)=O,-5.42664103910,0.00000000000,1,G1,264.40900,4.18060,75.61400,19,2,0,2,1,108,0,3,3,3,26.30,116.83589872714,1.98677171357,413.48512752543
A-2057,12-hydroxyoctadecanoic acid,"InChI=1S/C18H36O3/c1-2-3-4-11-14-17(19)15-12-9-7-5-6-8-10-13-16-18(20)21/h17,19H,2-16H2,1H3,(H,20,21)",ULQISTXYYBZJSJ-UHFFFAOYSA-N,CCCCCCC(O)CCCCCCCCCCC(O)=O,-5.48837008890,0.00000000000,1,G1,300.48300,5.30330,88.57160,21,2,2,3,16,126,0,0,0,0,57.53,130.69325657701,3.11917698746,228.50332838484
A-2060,"Bisbenzimidazo[2,1-b:1',2'-j]benzo[lmn][3,8]phenanthroline-6,9-dione",InChI=1S/C26H12N4O2/c31-25-15-11-12-16-22-14(24-28-18-6-2-4-8-20(18)30(24)26(16)32)10-9-13(21(15)22)23-27-17-5-1-3-7-19(17)29(23)25/h1-12H,YMEPVPIIHONYLV-UHFFFAOYSA-N,O=C1n2c3ccccc3nc2c4ccc5c6nc7ccccc7n6C(=O)c8ccc1c4c58,-5.63305584820,1.06246936830,2,G2,412.40800,4.34400,126.38400,32,6,0,6,0,148,8,0,0,8,68.74,177.81741161071,1.73508782587,2033.03330622930
A-2062,barium 3-hydroxy-4-[(4-methyl-2-sulphonatophenyl)azo]-2-naphthoate,"InChI=1S/C18H14N2O6S.Ba/c1-10-6-7-14(15(8-10)27(24,25)26)19-20-16-12-5-3-2-4-11(12)9-13(17(16)21)18(22)23;/h2-9,19H,1H3,(H,22,23)(H,24,25,26);/q;+2/p-2/b20-16-;",LPMJODPDQRKJEH-LRZQPWDCSA-L,[Ba++].Cc1ccc(N\N=C\2C(=O)C(=Cc3ccccc23)C([O-])=O)c(c1)[S]([O-])(=O)=O,-5.73514710630,0.67951097130,2,G2,521.69700,0.05052,99.48890,28,8,1,10,4,138,2,0,1,3,138.79,200.72009103658,0.00000280333,1138.51487454637
A-2063,4-{2-[4-(cyanooxy)phenyl]propan-2-yl}phenyl cyanate,"InChI=1S/C17H14N2O2/c1-17(2,13-3-7-15(8-4-13)20-11-18)14-5-9-16(10-6-14)21-12-19/h3-10H,1-2H3",AHZMUXQJTGRNHT-UHFFFAOYSA-N,CC(C)(c1ccc(OC#N)cc1)c2ccc(OC#N)cc2,-5.46955837750,0.00000000000,1,G1,278.31100,3.73226,77.49400,21,4,0,4,4,104,2,0,0,2,66.04,123.32545771950,2.27881287345,628.05534648767
A-2065,lauronitrile,"InChI=1S/C12H23N/c1-2-3-4-5-6-7-8-9-10-11-12-13/h2-11H2,1H3",VXCUURYYWGCLIH-UHFFFAOYSA-N,CCCCCCCCCCCC#N,-5.28996994730,0.00000000000,1,G1,181.32300,4.43088,57.45700,13,1,0,1,9,76,0,0,0,0,23.79,83.14619396766,2.80361022322,123.57639132285
A-2073,1-chloro-4-(4-chlorobenzenesulfonyl)benzene,"InChI=1S/C12H8Cl2O2S/c13-9-1-5-11(6-2-9)17(15,16)12-7-3-10(14)4-8-12/h1-8H",GPAPPPVRLPGFEQ-UHFFFAOYSA-N,Clc1ccc(cc1)[S](=O)(=O)c2ccc(Cl)cc2,-5.52363607990,0.00000000000,1,G1,287.16700,3.82620,68.35580,17,2,0,5,2,88,2,0,0,2,34.14,109.72042816111,2.49612896719,565.06013418302
A-2077,"1-N,4-N-bis(5-methylhexan-2-yl)benzene-1,4-diamine","InChI=1S/C20H36N2/c1-15(2)7-9-17(5)21-19-11-13-20(14-12-19)22-18(6)10-8-16(3)4/h11-18,21-22H,7-10H2,1-6H3",ZJNLYGOUHDJHMG-UHFFFAOYSA-N,CC(C)CCC(C)Nc1ccc(NC(C)CCC(C)C)cc1,-5.57513365460,0.70686713795,2,G2,304.52200,6.15980,100.75540,22,2,2,2,10,126,1,0,0,1,24.06,137.64031708827,2.38694720119,355.67320050696
A-2079,2-cyclododecylpropan-1-ol,"InChI=1S/C15H30O/c1-14(13-16)15-11-9-7-5-3-2-4-6-8-10-12-15/h14-16H,2-13H2,1H3",WKHTUDYDJUHYMK-UHFFFAOYSA-N,CC(CO)C1CCCCCCCCCCC1,-5.45179410850,0.00000000000,1,G1,226.40400,4.53570,70.52680,16,1,1,1,2,96,0,1,1,1,20.23,101.63684322805,2.29738098758,143.51394111780
A-2083,methyl undec-10-enoate,"InChI=1S/C12H22O2/c1-3-4-5-6-7-8-9-10-11-12(13)14-2/h3H,1,4-11H2,2H3",KISVAASFGZJBCY-UHFFFAOYSA-N,COC(=O)CCCCCCCCC=C,-5.39751535210,0.00000000000,1,G1,198.30600,3.46620,59.14900,14,2,0,2,9,82,0,0,0,0,26.30,87.33907858356,2.98475035074,152.40071895208
A-2084,"dialuminium tris[2-(2,4,5,7-tetrabromo-6-oxido-3-oxoxanthen-9-yl)-3,4,5,6-tetrachlorobenzoate]","InChI=1S/3C20H4Br4Cl4O5.2Al/c3*21-5-1-3-7(8-9(20(31)32)13(26)15(28)14(27)12(8)25)4-2-6(22)17(30)11(24)19(4)33-18(3)10(23)16(5)29;;/h3*1-2,29H,(H,31,32);;/q;;;2*+3/p-6",SYHCUZIBEFBVNF-UHFFFAOYSA-H,[Al+3].[Al+3].[O-]C(=O)c1c(Cl)c(Cl)c(Cl)c(Cl)c1C2=C3C=C(Br)C(=O)C(=C3Oc4c(Br)c([O-])c(Br)cc24)Br.[O-]C(=O)c5c(Cl)c(Cl)c(Cl)c(Cl)c5C6=C7C=C(Br)C(=O)C(=C7Oc8c(Br)c([O-])c(Br)cc68)Br.[O-]C(=O)c9c(Cl)c(Cl)c(Cl)c(Cl)c9C%10=C%11C=C(Br)C(=O)C(=C%11Oc%12c(Br)c([O-])c(Br)cc%10%12)Br,-6.49006901110,0.00000000000,1,G1,2404.94100,22.23490,428.98350,101,15,0,41,6,510,6,0,6,12,280.20,744.92249121359,0.00000019059,5273.58056900427
A-2085,[(oxobismuthanyl)oxy]bismuthanone,InChI=1S/2Bi.3O/q2*+3;3*-2,TYIXMATWDRGMPF-UHFFFAOYSA-N,[O--].[O--].[O--].[Bi+3].[Bi+3],-5.77792482170,1.02170479855,3,G4,465.95700,-1.11800,13.56750,5,0,0,5,0,28,0,0,0,0,85.50,68.30725322633,0.00000000000,4.85475297227
A-2086,Estrone,"InChI=1S/C18H22O2/c1-18-9-8-14-13-5-3-12(19)10-11(13)2-4-15(14)16(18)6-7-17(18)20/h3,5,10,14-16,19H,2,4,6-9H2,1H3/t14-,15-,16+,18+/m1/s1",DNXHEGUUPJUMQT-CBZIJGRNSA-N,C[C@]12CC[C@H]3[C@@H](CCc4cc(O)ccc34)[C@@H]1CCC2=O,-5.55114812130,0.79817406065,2,G2,270.37200,3.81740,77.73080,20,2,1,2,0,106,1,2,3,4,37.30,119.74897088391,1.72844125740,576.78099632038
A-2087,"2,6-di-tert-butyl-4-methylphenol","InChI=1S/C15H24O/c1-10-8-11(14(2,3)4)13(16)12(9-10)15(5,6)7/h8-9,16H,1-7H3",NLZUEZXRPGMBCV-UHFFFAOYSA-N,Cc1cc(c(O)c(c1)C(C)(C)C)C(C)(C)C,-5.46231128800,0.15961726355,5,G5,220.35600,4.29562,70.24380,16,1,1,1,0,90,1,0,0,1,20.23,99.51011590126,3.50784833793,353.87158284758
A-2088,"3,3,4,4,5,5,6,6,7,7,8,8,8-tridecafluorooctyl prop-2-enoate 3,3,4,4,5,5,6,6,7,7,8,8,9,9,10,10,10-heptadecafluorodecyl prop-2-enoate 3,3,4,4,5,5,6,6,7,7,8,8,9,9,10,10,11,11,12,12,12-henicosafluorododecyl prop-2-enoate 3,3,4,4,5,5,6,6,7,7,8,8,9,9,10,10,11,11,12,12,13,13,14,14,14-pentacosafluorotetradecyl prop-2-enoate","InChI=1S/C17H7F25O2.C15H7F21O2.C13H7F17O2.C11H7F13O2/c1-2-5(43)44-4-3-6(18,19)7(20,21)8(22,23)9(24,25)10(26,27)11(28,29)12(30,31)13(32,33)14(34,35)15(36,37)16(38,39)17(40,41)42;1-2-5(37)38-4-3-6(16,17)7(18,19)8(20,21)9(22,23)10(24,25)11(26,27)12(28,29)13(30,31)14(32,33)15(34,35)36;1-2-5(31)32-4-3-6(14,15)7(16,17)8(18,19)9(20,21)10(22,23)11(24,25)12(26,27)13(28,29)30;1-2-5(25)26-4-3-6(12,13)7(14,15)8(16,17)9(18,19)10(20,21)11(22,23)24/h2H,1,3-4H2;2H,1,3-4H2;2H,1,3-4H2;2H,1,3-4H2",HXKIEMJEEMWSAX-UHFFFAOYSA-N,FC(F)(F)C(F)(F)C(F)(F)C(F)(F)C(F)(F)C(F)(F)CCOC(=O)C=C.FC(F)(F)C(F)(F)C(F)(F)C(F)(F)C(F)(F)C(F)(F)C(F)(F)C(F)(F)CCOC(=O)C=C.FC(F)(F)C(F)(F)C(F)(F)C(F)(F)C(F)(F)C(F)(F)C(F)(F)C(F)(F)C(F)(F)C(F)(F)CCOC(=O)C=C.FC(F)(F)C(F)(F)C(F)(F)C(F)(F)C(F)(F)C(F)(F)C(F)(F)C(F)(F)C(F)(F)C(F)(F)C(F)(F)C(F)(F)CCOC(=O)C=C,-6.48147702670,0.00000000000,1,G1,2272.68000,27.00160,285.61600,140,8,0,84,44,832,0,0,0,0,105.20,712.75110859209,-0.00000089556,4231.44625071930
A-2089,"2,4,6-tris(butan-2-yl)phenol","InChI=1S/C18H30O/c1-7-12(4)15-10-16(13(5)8-2)18(19)17(11-15)14(6)9-3/h10-14,19H,7-9H2,1-6H3",LAVMWOGIDKQCDK-UHFFFAOYSA-N,CCC(C)c1cc(C(C)CC)c(O)c(c1)C(C)CC,-5.54979334480,0.58513085770,2,G2,262.43700,5.93270,84.22480,19,1,1,1,6,108,1,0,0,1,20.23,118.60494224445,3.37441994742,377.14646451983
A-2091,N-phenylnaphthalen-2-amine,"InChI=1S/C16H13N/c1-2-8-15(9-3-1)17-16-11-10-13-6-4-5-7-14(13)12-16/h1-12,17H",KEQFTVQCIQJIQW-UHFFFAOYSA-N,N(c1ccccc1)c2ccc3ccccc3c2,-5.49591484610,0.00000000000,1,G1,219.28700,4.58340,73.67270,17,1,1,1,2,82,3,0,0,3,12.03,100.72002404090,1.96124671758,629.10612515103
A-2093,oxoyttrium,InChI=1S/O.Y,APUGIHICMSAKGR-UHFFFAOYSA-N,O=[Y],-5.17569814810,0.00000000000,1,G1,104.90500,-0.12130,0.68650,2,1,0,2,0,9,0,0,0,0,17.07,33.10219234234,2.00000000000,2.00000000000
A-2094,yttrium oxide,InChI=1S/3O.2Y/q3*-2;2*+3,RUDFQVOCFDJEEF-UHFFFAOYSA-N,[O--].[O--].[O--].[Y+3].[Y+3],-5.50864320750,0.00000000000,1,G1,225.80900,-0.36140,2.05950,5,0,0,5,0,24,0,0,0,0,85.50,80.57806280384,0.00000000000,4.85475297227
A-2095,"2,6,10-trimethylundec-9-enal","InChI=1S/C14H26O/c1-12(2)7-5-8-13(3)9-6-10-14(4)11-15/h7,11,13-14H,5-6,8-10H2,1-4H3",UEGBWDUVDAKUGA-UHFFFAOYSA-N,CC(CCCC(C)C=O)CCC=C(C)C,-5.49689042400,0.00000000000,1,G1,210.36100,4.37420,66.90800,15,1,0,1,8,88,0,0,0,0,17.07,94.95541758284,3.44671360360,189.51538124536
A-2096,"N-(1,4-dimethylpentyl)-N'-phenylbenzene-1,4-diamine","InChI=1S/C19H26N2/c1-15(2)9-10-16(3)20-18-11-13-19(14-12-18)21-17-7-5-4-6-8-17/h4-8,11-16,20-21H,9-10H2,1-3H3",UHJVLUYSDYOULM-UHFFFAOYSA-N,CC(C)CCC(C)Nc1ccc(Nc2ccccc2)cc1,-5.62483756100,0.00000000000,1,G1,282.43100,5.66680,93.32340,21,2,2,2,7,112,2,0,0,2,24.06,128.14281649355,1.86816833136,517.02243408218
A-2097,(5Z)-cyclohexadec-5-en-1-one,"InChI=1S/C16H28O/c17-16-14-12-10-8-6-4-2-1-3-5-7-9-11-13-15-16/h6,8H,1-5,7,9-15H2/b8-6-",ABRIMXGLNHCLIP-VURMDHGXSA-N,O=C1CCCCCCCCCC\C=C/CCC1,-5.56073227840,0.24405831950,2,G3,236.39900,5.19660,74.16800,17,1,0,1,0,98,0,0,1,1,17.07,106.67947065811,2.18773937708,217.56506833587