ID,Name,InChI,InChIKey,SMILES,Solubility,SD,Ocurrences,Group,MolWt,MolLogP,MolMR,HeavyAtomCount,NumHAcceptors,NumHDonors,NumHeteroatoms,NumRotatableBonds,NumValenceElectrons,NumAromaticRings,NumSaturatedRings,NumAliphaticRings,RingCount,TPSA,LabuteASA,BalabanJ,BertzCT
A-2453,"2-acetyl-4-({4-[(3-acetyl-4-amino-9,10-dioxo-9,10-dihydroanthracen-1-yl)amino]-6-phenyl-1,3,5-triazin-2-yl}amino)-1-amino-9,10-dihydroanthracene-9,10-dione","InChI=1S/C41H27N7O6/c1-18(49)25-16-27(29-31(33(25)42)37(53)23-14-8-6-12-21(23)35(29)51)44-40-46-39(20-10-4-3-5-11-20)47-41(48-40)45-28-17-26(19(2)50)34(43)32-30(28)36(52)22-13-7-9-15-24(22)38(32)54/h3-17H,42-43H2,1-2H3,(H2,44,45,46,47,48)",QHUKBYLVVVMGRT-UHFFFAOYSA-N,CC(=O)c1cc(Nc2nc(Nc3cc(C(C)=O)c(N)c4C(=O)c5ccccc5C(=O)c34)nc(n2)c6ccccc6)c7C(=O)c8ccccc8C(=O)c7c1N,-4.95043179480,0.00000000000,1,G1,713.71000,6.14620,200.16020,54,13,4,13,7,262,6,0,2,8,217.19,306.03233106228,1.31053203369,2560.74500850845
A-2455,"Glycerides, C16-22","InChI=1S/C19H38O4/c1-2-3-4-5-6-7-8-9-10-11-12-13-14-15-19(22)23-17-18(21)16-20/h18,20-21H,2-17H2,1H3",QHZLMUACJMDIAE-UHFFFAOYSA-N,CCCCCCCCCCCCCCCC(=O)OCC(O)CO,-4.72679160060,0.00000000000,1,G1,330.50900,4.36410,94.36360,23,4,2,4,17,138,0,0,0,0,66.76,142.17174392091,3.13896574344,255.75416757722
A-2456,"A mixture of: bis(2,2,6,6-tetramethyl-1-octyloxypiperidin-4-yl)-1,10-decanedioate; 1,8-bis[(2,2,6,6-tetramethyl-4-((2,2,6,6-tetramethyl-1-octyloxypiperidin-4-yl)-decan-1,10-dioyl)piperidin-1-yl)oxy]octane","InChI=1S/C28H52N2O4.C8H18.C4H10O2/c1-25(2)17-21(18-26(3,4)29-25)33-23(31)15-13-11-9-10-12-14-16-24(32)34-22-19-27(5,6)30-28(7,8)20-22;1-3-5-7-8-6-4-2;1-4(2,3)6-5/h21-22,29-30H,9-20H2,1-8H3;3-8H2,1-2H3;5H,1-3H3",FNRJJSFGQVCXEK-UHFFFAOYSA-N,CCCCCCCC.CC(C)(C)OO.CC1(C)CC(CC(C)(C)N1)OC(=O)CCCCCCCCC(=O)OC2CC(C)(C)NC(C)(C)C2,-5.05759511010,0.00000000000,1,G1,685.08800,10.45330,200.26820,48,8,3,8,16,286,0,2,2,2,106.12,296.45892681306,0.00000131320,781.44561720013
A-2457,2-ethylhexyl 2-{[({2-[(2-ethylhexyl)oxy]-2-oxoethyl}sulfanyl)dimethylstannyl]sulfanyl}acetate,"InChI=1S/2C10H20O2S.2CH3.Sn/c2*1-3-5-6-9(4-2)7-12-10(11)8-13;;;/h2*9,13H,3-8H2,1-2H3;2*1H3;/q;;;;+2/p-2",YAHBZWSDRFSFOO-UHFFFAOYSA-L,CCCCC(CC)COC(=O)CS[Sn](C)(C)SCC(=O)OCC(CC)CCCC,-4.04566323840,0.00000000000,1,G1,555.43500,6.67380,130.92800,29,6,0,7,18,172,0,0,0,0,52.60,188.72329013164,4.08924722610,408.52820083967
A-2458,"2-{2-[(8E)-heptadec-8-en-1-yl]-4,5-dihydro-1H-imidazol-1-yl}ethan-1-ol","InChI=1S/C22H42N2O/c1-2-3-4-5-6-7-8-9-10-11-12-13-14-15-16-17-22-23-18-19-24(22)20-21-25/h9-10,25H,2-8,11-21H2,1H3/b10-9-",WGTDLPBPQKAPMN-KTKRTIGZSA-N,CCCCCCCC\C=C/CCCCCCCC1=NCCN1CCO,-3.84583075880,0.15051499780,2,G3,350.59100,5.73030,110.41280,25,3,1,3,17,146,0,0,1,1,35.83,156.15699115270,1.81891336225,351.93638233937
A-2460,"3,5-di-tert-butyl-2-hydroxybenzoic acid hydrate zinc hydrochloride","InChI=1S/C15H22O3.ClH.H2O.Zn/c1-14(2,3)9-7-10(13(17)18)12(16)11(8-9)15(4,5)6;;;/h7-8,16H,1-6H3,(H,17,18);1H;1H2;",DDGGEFYAEPNQFB-UHFFFAOYSA-N,O.Cl.[Zn].CC(C)(C)c1cc(C(O)=O)c(O)c(c1)C(C)(C)C,-4.86947110260,0.00000000000,1,G1,370.20400,3.28000,83.32790,21,2,2,6,1,118,1,0,0,1,89.03,144.98304647703,-0.00000108000,487.67258898381
A-2461,zinc bis[bis(tetrapropylenephenyl)] bis(hydrogen dithiophosphate),"InChI=1S/2C36H59O2PS2.Zn/c2*1-9-13-27(5)35(15-11-3)29(7)25-31-17-21-33(22-18-31)37-39(40,41)38-34-23-19-32(20-24-34)26-30(8)36(16-12-4)28(6)14-10-2;/h2*17-24,27-30,35-36H,9-16,25-26H2,1-8H3,(H,40,41);/q;;+2/p-2",JVQCNSRVEPWJNL-UHFFFAOYSA-L,[Zn++].CCCC(C)C(CCC)C(C)Cc1ccc(O[P]([S-])(=S)Oc2ccc(CC(C)C(CCC)C(C)CCC)cc2)cc1.CCCC(C)C(CCC)C(C)Cc3ccc(O[P]([S-])(=S)Oc4ccc(CC(C)C(CCC)C(C)CCC)cc4)cc3,-5.41541476760,0.00000000000,1,G1,1301.32200,23.95350,372.93200,83,8,0,11,40,464,4,0,0,4,36.92,544.85706560606,0.00000056000,2061.57119378259
A-2462,chromium tris((2-ethylhexanoate),"InChI=1S/3C8H16O2.Cr/c3*1-3-5-6-7(4-2)8(9)10;/h3*7H,3-6H2,1-2H3,(H,9,10);/q;;;+3/p-3",WBKDDMYJLXVBNI-UHFFFAOYSA-K,[Cr+3].CCCCC(CC)C([O-])=O.CCCCC(CC)C([O-])=O.CCCCC(CC)C([O-])=O,-3.01994127120,0.00000000000,1,G1,481.61400,2.85560,114.93900,31,6,0,7,15,183,0,0,0,0,120.39,200.88536251472,-0.00000017357,366.47904614349
A-2463,"[(2R,3R)-5,7-dihydroxy-2-(3,4,5-trihydroxyphenyl)chroman-3-yl] 3,4,5-trihydroxybenzoate","InChI=1S/C22H18O11/c23-10-5-12(24)11-7-18(33-22(31)9-3-15(27)20(30)16(28)4-9)21(32-17(11)6-10)8-1-13(25)19(29)14(26)2-8/h1-6,18,21,23-30H,7H2/t18-,21-/m1/s1",WMBWREPUVVBILR-WIYYLYMNSA-N,Oc1cc(O)c2C[C@@H](OC(=O)c3cc(O)c(O)c(O)c3)[C@H](Oc2c1)c4cc(O)c(O)c(O)c4,-1.05916093160,0.00000000000,1,G1,458.37500,2.23320,108.92090,33,11,8,11,3,172,3,0,1,4,197.37,184.74201141231,1.74726057322,1221.42740425337
A-2464,"Alcohols, C16-18 and C18-unsatd., ethoxylated","InChI=1S/C20H40O/c1-3-5-6-7-8-9-10-11-12-13-14-15-16-17-18-19-20-21-4-2/h5-6H,3-4,7-20H2,1-2H3/b6-5+",WBCCOWHDSAVXAO-AATRIKPKSA-N,CCOCCCCCCCCCCCCCC\C=C\CC,-4.79998396070,0.34547486825,2,G3,296.53900,7.06040,95.94500,21,1,0,1,17,126,0,0,0,0,9.23,134.09709339869,2.94602128040,198.01509520065
A-2465,2-(4-chloro-2-fluorophenyl)acetonitrile,"InChI=1S/C8H5ClFN/c9-7-2-1-6(3-4-11)8(10)5-7/h1-2,5H,3H2",RTQOANCZEAIDEZ-UHFFFAOYSA-N,Fc1cc(Cl)ccc1CC#N,-2.59390624980,0.00000000000,1,G1,169.58600,2.54518,40.72700,11,1,0,3,1,56,1,0,0,1,23.79,69.02266865957,3.01473529001,303.45063475813
A-2466,"2,2-dimethyl-4-phenylpentanenitrile","InChI=1S/C13H17N/c1-11(9-13(2,3)10-14)12-7-5-4-6-8-12/h4-8,11H,9H2,1-3H3",GWCCFAFCQHECBM-UHFFFAOYSA-N,CC(CC(C)(C)C#N)c1ccccc1,-3.23507881630,0.00000000000,1,G1,187.28600,3.72998,58.86800,14,1,0,1,3,74,1,0,0,1,23.79,86.37857760174,2.69613420369,318.83884147467
A-2467,4-tert-butylcyclohexyl acetate,"InChI=1S/C12H22O2/c1-9(13)14-11-7-5-10(6-8-11)12(2,3)4/h10-11H,5-8H2,1-4H3",MBZRJSQZCBXRGK-UHFFFAOYSA-N,CC(=O)OC1CCC(CC1)C(C)(C)C,-3.69964066860,0.52373341645,2,G2,198.30600,3.15440,56.96700,14,2,0,2,1,82,0,1,1,1,26.30,87.02285046221,2.34922693598,194.85749387445
A-2470,17-hydroxyandrostan-3-one,"InChI=1S/C19H30O2/c1-18-9-7-13(20)11-12(18)3-4-14-15-5-6-17(21)19(15,2)10-8-16(14)18/h12,14-17,21H,3-11H2,1-2H3/t12-,14-,15-,16-,17-,18-,19-/m0/s1",NVKAWKQGWWIWPM-ABEVXSGRSA-N,C[C@]12CC[C@H]3[C@@H](CC[C@H]4CC(=O)CC[C@]34C)[C@@H]1CC[C@@H]2O,-4.91899885070,2.58804942535,2,G2,290.44700,3.95910,82.74080,21,2,1,2,0,118,0,4,4,4,37.30,128.24064032509,1.63706451814,458.48270663634
A-2471,1-cyclohexyl-3-[4-({4-[(cyclohexylcarbamoyl)amino]phenyl}methyl)phenyl]urea,"InChI=1S/C27H36N4O2/c32-26(28-22-7-3-1-4-8-22)30-24-15-11-20(12-16-24)19-21-13-17-25(18-14-21)31-27(33)29-23-9-5-2-6-10-23/h11-18,22-23H,1-10,19H2,(H2,28,30,32)(H2,29,31,33)",SGXPOLBQSKXTKY-UHFFFAOYSA-N,O=C(NC1CCCCC1)Nc2ccc(Cc3ccc(NC(=O)NC4CCCCC4)cc3)cc2,-5.14266739600,0.00000000000,1,G1,448.61100,6.18580,133.74480,33,2,4,6,6,176,2,2,2,4,82.26,196.47345966897,1.21906118568,823.22352701155
A-2473,"2,4-dioxo-1,3-diazetidine-1,3-bis(methyl-m-phenylene) diisocyanate","InChI=1S/C18H12N4O4/c1-11-3-5-13(7-15(11)19-9-23)21-17(25)22(18(21)26)14-6-4-12(2)16(8-14)20-10-24/h3-8H,1-2H3",LOCPTSFJZDIICR-UHFFFAOYSA-N,Cc1ccc(cc1N=C=O)N2C(=O)N(c3ccc(C)c(c3)N=C=O)C2=O,-5.03682593970,0.00000000000,1,G1,348.31800,3.80464,93.67100,26,6,0,8,4,128,2,1,1,3,99.48,147.62871957071,1.93538952155,937.98176818371
A-2474,"(2R)-2-[(2R,3R,4S)-3,4-dihydroxyoxolan-2-yl]-2-hydroxyethyl dodecanoate","InChI=1S/C18H34O6/c1-2-3-4-5-6-7-8-9-10-11-16(21)23-13-15(20)18-17(22)14(19)12-24-18/h14-15,17-20,22H,2-13H2,1H3/t14-,15?,17+,18-/m1/s1",LWZFANDGMFTDAV-IOVMHBDKSA-N,CCCCCCCCCCCC(=O)OCC(O)[C@H]1OC[C@@H](O)[C@@H]1O,-5.06253686040,0.00000000000,1,G1,346.46400,1.93200,90.56340,24,6,3,6,13,142,0,1,1,1,96.22,144.70874963469,1.96377422680,335.47067498702
A-2476,methyl 2-({4-[2-(2-cyano-4-nitrophenyl)diazen-1-yl]-3-acetamidophenyl}(2-methoxy-2-oxoethyl)amino)acetate,"InChI=1S/C21H20N6O7/c1-13(28)23-19-9-15(26(11-20(29)33-2)12-21(30)34-3)4-7-18(19)25-24-17-6-5-16(27(31)32)8-14(17)10-22/h4-9H,11-12H2,1-3H3,(H,23,28)",DSYAJHRMVXOBRK-UHFFFAOYSA-N,COC(=O)CN(CC(=O)OC)c1ccc(N=Nc2ccc(cc2C#N)[N+]([O-])=O)c(NC(C)=O)c1,-5.19351973790,0.00000000000,1,G1,468.42600,2.99268,118.97810,34,11,1,13,9,176,2,0,0,2,176.59,193.28666221654,2.46471962167,1170.61997515144
A-2477,iodocopper,InChI=1S/Cu.HI/h;1H/q+1;/p-1,LSXDOTMGLUJQCM-UHFFFAOYSA-M,[Cu+].[I-],-5.97875098130,0.00000000000,1,G1,190.45000,-2.99850,0.00000,2,0,0,2,0,18,0,0,0,0,0.00,41.10789044876,0.00000000000,2.00000000000
A-2478,"4-[(E)-2-{3-[(E)-2-(2,4-diaminophenyl)diazen-1-yl]phenyl}diazen-1-yl]benzene-1,3-diamine","InChI=1S/C18H18N8/c19-11-4-6-17(15(21)8-11)25-23-13-2-1-3-14(10-13)24-26-18-7-5-12(20)9-16(18)22/h1-10H,19-22H2",BDFZFGDTHFGWRQ-UHFFFAOYSA-N,Nc1ccc(N=Nc2cccc(c2)N=Nc3ccc(N)cc3N)c(N)c1,-4.19715269500,0.00000000000,1,G1,346.39800,4.84620,105.32760,26,8,4,8,4,130,3,0,0,3,153.52,149.79871000865,1.79320496015,917.48130822644
A-2479,"2,3-dimethylpentane; 2-methylpentane; 3-methylhexane; 3-methylpentane","InChI=1S/2C7H16.2C6H14/c1-5-7(4)6(2)3;1-4-6-7(3)5-2;1-4-5-6(2)3;1-4-6(3)5-2/h6-7H,5H2,1-4H3;7H,4-6H2,1-3H3;2*6H,4-5H2,1-3H3",KFBRQWHEGZEJKU-UHFFFAOYSA-N,CCCC(C)C.CCCC(C)CC.CCC(C)CC.CCC(C)C(C)C,-3.27040629780,0.43123009999,5,G5,372.76600,10.40610,128.14800,26,0,0,0,9,164,0,0,0,0,0.00,170.88029734833,-0.00000012447,200.08384997862
A-2481,pent-2-ene,"InChI=1S/C5H10/c1-3-5-4-2/h3,5H,4H2,1-2H3/b5-3+",QMMOXUPEWRXHJS-HWKANZROSA-N,CC\C=C\C,-2.54490480570,0.43123009998,5,G5,70.13500,1.97250,25.10500,5,0,0,0,1,30,0,0,0,0,0.00,33.50941645323,2.62241580799,27.01955000865
A-2482,hydrogen sulfide,InChI=1S/H2S/h1H2,RWSOTUBLDIXVET-UHFFFAOYSA-N,S,-5.53253781460,3.16871879030,5,G4,34.08300,0.11280,10.38100,1,0,0,1,0,8,0,0,0,0,0.00,14.56133221487,0.00000000000,0.00000000000
A-2483,2-[(2-cyanoethyl)[4-[(6-nitrobenzothiazol-2-yl)azo]phenyl]amino]ethyl acetate,"InChI=1S/C20H18N6O4S/c1-14(27)30-12-11-25(10-2-9-21)16-5-3-15(4-6-16)23-24-20-22-18-8-7-17(26(28)29)13-19(18)31-20/h3-8,13H,2,10-12H2,1H3",ZNUBBVSUTSNSIM-UHFFFAOYSA-N,CC(=O)OCCN(CCC#N)c1ccc(cc1)N=Nc2sc3cc(ccc3n2)[N+]([O-])=O,-4.34090889830,0.73109555085,2,G2,438.46900,4.90308,115.96840,31,10,0,11,9,158,3,0,0,3,134.08,181.11200215764,1.69907785506,1152.68160728768
A-2484,2-[(E)-2-{4-[(E)-2-(2-cyanophenyl)ethenyl]phenyl}ethenyl]benzonitrile,"InChI=1S/C24H16N2/c25-17-23-7-3-1-5-21(23)15-13-19-9-11-20(12-10-19)14-16-22-6-2-4-8-24(22)18-26/h1-16H/b15-13+,16-14+",RBABXJPJIHMBBP-WXUKJITCSA-N,N#Cc1ccccc1/C=C/c2ccc(cc2)/C=C/c3ccccc3C#N,-4.22063885860,0.00000000000,1,G1,332.40600,5.77076,106.61200,26,2,0,2,4,122,3,0,0,3,47.58,153.14119751657,1.74840908248,956.05902116803
A-2485,"3,3'-[[4-[(2-chloro-4-nitrophenyl)azo]phenyl]imino]bis[propiononitrile]","InChI=1S/C18H15ClN6O2/c19-17-13-16(25(26)27)7-8-18(17)23-22-14-3-5-15(6-4-14)24(11-1-9-20)12-2-10-21/h3-8,13H,1-2,11-12H2",ZXXVVTBKBDDTSE-UHFFFAOYSA-N,[O-][N+](=O)c1ccc(N=Nc2ccc(cc2)N(CCC#N)CCC#N)c(Cl)c1,-4.28195441300,0.00000000000,1,G1,382.81100,5.29736,101.39740,27,7,0,9,8,136,2,0,0,2,118.68,160.62616283895,2.12130822138,896.92958364844
A-2486,3-[[2-(acetyloxy)ethyl][4-[(4-nitrophenyl)azo]phenyl]amino]propiononitrile,"InChI=1S/C19H19N5O4/c1-15(25)28-14-13-23(12-2-11-20)18-7-3-16(4-8-18)21-22-17-5-9-19(10-6-17)24(26)27/h3-10H,2,12-14H2,1H3",QLRDACXDRLGLOC-UHFFFAOYSA-N,CC(=O)OCCN(CCC#N)c1ccc(cc1)N=Nc2ccc(cc2)[N+]([O-])=O,-4.28034158350,0.00000000000,1,G1,381.39200,4.29338,102.79040,28,8,0,9,9,144,2,0,0,2,121.19,161.57032637455,2.03145414653,872.69215283144
A-2487,"3-[[4-[(2,6-dibromo-4-nitrophenyl)azo]phenyl]ethylamino]propiononitrile","InChI=1S/C17H15Br2N5O2/c1-2-23(9-3-8-20)13-6-4-12(5-7-13)21-22-17-15(18)10-14(24(25)26)11-16(17)19/h4-7,10-11H,2-3,9H2,1H3",MWMJPPMTXZJLIK-UHFFFAOYSA-N,CCN(CCC#N)c1ccc(cc1)N=Nc2c(Br)cc(cc2Br)[N+]([O-])=O,-4.38124868920,0.00000000000,1,G1,481.14800,6.27518,107.23140,26,6,0,9,7,134,2,0,0,2,94.89,167.30047002749,2.18751779192,839.44233563865
A-2488,3-[[4-[(2-chloro-4-nitrophenyl)azo]phenyl]ethylamino]propiononitrile,"InChI=1S/C17H16ClN5O2/c1-2-22(11-3-10-19)14-6-4-13(5-7-14)20-21-17-9-8-15(23(24)25)12-16(17)18/h4-9,12H,2-3,11H2,1H3",NPBDWXMKLFBNIW-UHFFFAOYSA-N,CCN(CCC#N)c1ccc(cc1)N=Nc2ccc(cc2Cl)[N+]([O-])=O,-4.25261155440,0.00000000000,1,G1,357.80100,5.40358,96.84140,25,6,0,8,7,128,2,0,0,2,94.89,149.86864104309,2.11567033364,814.77818626991
A-2489,"N-{5-[bis(prop-2-en-1-yl)amino]-2-[(E)-2-(2-chloro-4,6-dinitrophenyl)diazen-1-yl]-4-methoxyphenyl}acetamide","InChI=1S/C21H21ClN6O6/c1-5-7-26(8-6-2)18-11-16(23-13(3)29)17(12-20(18)34-4)24-25-21-15(22)9-14(27(30)31)10-19(21)28(32)33/h5-6,9-12H,1-2,7-8H2,3-4H3,(H,23,29)",DKEXINVRFGWAKP-UHFFFAOYSA-N,COc1cc(N=Nc2c(Cl)cc(cc2[N+]([O-])=O)[N+]([O-])=O)c(NC(C)=O)cc1N(CC=C)CC=C,-4.38817938180,0.00000000000,1,G1,488.88800,5.71720,128.84150,34,9,1,13,11,178,2,0,0,2,152.57,199.03452899049,2.67981559093,1172.82918481198
A-2490,(1-ethoxy-1-oxopropan-2-yl) 5-[2-chloro-4-(trifluoromethyl)phenoxy]-2-nitrobenzoate,"InChI=1S/C19H15ClF3NO7/c1-3-29-17(25)10(2)30-18(26)13-9-12(5-6-15(13)24(27)28)31-16-7-4-11(8-14(16)20)19(21,22)23/h4-10H,3H2,1-2H3",CONWAEURSVPLRM-UHFFFAOYSA-N,CCOC(=O)C(C)OC(=O)c1cc(Oc2ccc(cc2Cl)C(F)(F)F)ccc1[N+]([O-])=O,-6.62303867230,0.02068066385,2,G3,461.77600,5.16770,101.13490,31,7,0,12,7,166,2,0,0,2,104.97,178.15962017311,2.32232550740,1010.48130197695
A-2491,1-methyl-3-oxoandrostan-17-yl acetate,"InChI=1S/C22H34O3/c1-13-11-16(24)12-15-5-6-17-18-7-8-20(25-14(2)23)21(18,3)10-9-19(17)22(13,15)4/h13,15,17-20H,5-12H2,1-4H3/t13-,15-,17-,18-,19-,20-,21-,22-/m0/s1",ZWCXCOXAEJHAHA-FVFBOZGUSA-N,C[C@H]1CC(=O)C[C@@H]2CC[C@H]3[C@@H]4CC[C@H](OC(C)=O)[C@@]4(C)CC[C@@H]3[C@@]12C,-5.09255899450,0.00000000000,1,G1,346.51100,4.77590,96.83500,25,3,0,3,1,140,0,4,4,4,43.37,151.81630024564,1.61402675630,583.82140651328
A-2493,"2,3-Dihydroxypropyl docosanoate","InChI=1S/C25H50O4/c1-2-3-4-5-6-7-8-9-10-11-12-13-14-15-16-17-18-19-20-21-25(28)29-23-24(27)22-26/h24,26-27H,2-23H2,1H3",OKMWKBLSFKFYGZ-UHFFFAOYSA-N,CCCCCCCCCCCCCCCCCCCCCC(=O)OCC(O)CO,-6.91873365970,0.00000000000,1,G1,414.67100,6.70470,122.06560,29,4,2,4,23,174,0,0,0,0,66.76,180.36139660729,3.10608872293,332.78504411433
A-2494,2-methylpropane,InChI=1S/C4H9/c1-4(2)3/h1-3H3,IIVWHGMLFGNMOW-UHFFFAOYSA-N,C[C](C)C,-4.37654654320,0.00000000000,1,G1,57.11600,1.62059,20.26500,4,0,0,0,0,25,0,0,0,0,0.00,27.83407737102,2.32379000772,4.75488750216
A-2495,dihydroxy-dioxomolybdenum,InChI=1S/Mo.2H2O.2O/h;2*1H2;;/q+2;;;;/p-2,VLAPMBHFAWRUQP-UHFFFAOYSA-L,O[Mo](O)(=O)=O,-2.37976096230,0.00000000000,1,G1,161.95200,-1.35410,5.81060,5,2,2,5,0,32,0,0,0,0,74.60,31.77096706086,4.06294229897,86.81635834269
A-2497,"Butene, homopolymer (products derived from either/or But-1-ene/But-2-ene)","InChI=1S/2C4H8/c2*1-3-4-2/h3-4H,1-2H3;3H,1,4H2,2H3/b4-3+;",WTOOLIQYCQJDBG-BJILWQEISA-N,CCC=C.C\C=C\C,-4.66984354230,0.19010562085,2,G3,112.21600,3.16480,40.97600,8,0,0,0,1,48,0,0,0,0,0.00,52.92047091777,0.00000000000,47.05865002596
A-2498,2-[(heptanoyloxy)methyl]-3-hydroxy-2-[(pentanoyloxy)methyl]propyl nonanoate,"InChI=1S/C9H18O2.C7H14O2.C5H12O4.C5H10O2/c1-2-3-4-5-6-7-8-9(10)11;1-2-3-4-5-6-7(8)9;6-1-5(2-7,3-8)4-9;1-2-3-4-5(6)7/h2-8H2,1H3,(H,10,11);2-6H2,1H3,(H,8,9);6-9H,1-4H2;2-4H2,1H3,(H,6,7)",OWFZZECENILGEX-UHFFFAOYSA-N,CCCCCCCCC(O)=O.CCCCCCC(O)=O.CCCCC(O)=O.OCC(CO)(CO)CO,-5.41837385730,0.08643114450,2,G3,526.70800,4.06620,139.96060,36,7,7,10,19,218,0,0,0,0,192.82,216.92449991384,-0.00000019192,461.83558033143
A-2500,"2-{[2-(acetyloxy)ethyl]({4-[(E)-2-(2-bromo-4,6-dinitrophenyl)diazen-1-yl]-5-acetamido-2-methoxyphenyl})amino}ethyl acetate","InChI=1S/C23H25BrN6O10/c1-13(31)25-18-11-20(28(5-7-39-14(2)32)6-8-40-15(3)33)22(38-4)12-19(18)26-27-23-17(24)9-16(29(34)35)10-21(23)30(36)37/h9-12H,5-8H2,1-4H3,(H,25,31)",JSRUDOBCTLPTFO-UHFFFAOYSA-N,COc1cc(N=Nc2c(Br)cc(cc2[N+]([O-])=O)[N+]([O-])=O)c(NC(C)=O)cc1N(CCOC(C)=O)CCOC(C)=O,-5.49512024250,1.29251332600,2,G2,625.38900,4.58050,144.40350,40,13,1,17,13,214,2,0,0,2,205.17,235.25803532152,2.61104613406,1329.90992773207
A-2504,"2-tert-butylbenzene-1,4-diol","InChI=1S/C10H14O2/c1-10(2,3)8-6-7(11)4-5-9(8)12/h4-6,11-12H,1-3H3",BGNXCDMCOKJUMV-UHFFFAOYSA-N,CC(C)(C)c1cc(O)ccc1O,-1.22068327800,0.00000000000,1,G1,166.22000,2.39530,48.47160,12,2,2,2,0,66,1,0,0,1,40.46,72.47963908148,3.23142501309,284.38032048123
A-2505,4-methoxy-2-nitroaniline,"InChI=1S/C7H8N2O3/c1-12-5-2-3-6(8)7(4-5)9(10)11/h2-4H,8H2,1H3",QFMJFXFXQAFGBO-UHFFFAOYSA-N,COc1ccc(N)c(c1)[N+]([O-])=O,-1.22570203720,0.96039898140,2,G2,168.15200,1.18560,44.06080,12,4,1,5,2,64,1,0,0,1,78.39,68.90275688291,3.16726577775,311.51984000954
A-2506,"1,1-diethoxy-3,7-dimethylocta-2,6-diene","InChI=1S/C14H26O2/c1-6-15-14(16-7-2)11-13(5)10-8-9-12(3)4/h9,11,14H,6-8,10H2,1-5H3/b13-11+",NTXGFKWLJFHGGJ-ACCUITESSA-N,CCOC(OCC)\C=C(C)\CCC=C(C)C,-2.35479968530,0.00000000000,1,G1,226.36000,4.07820,69.46200,16,2,0,2,8,94,0,0,0,0,18.46,100.33138290963,4.08267509501,218.88984057993
A-2507,"1H-1,3-benzodiazole-2-thiol","InChI=1S/C7H6N2S/c10-7-8-5-3-1-2-4-6(5)9-7/h1-4H,(H2,8,9,10)",YHMYGUUIMTVXNW-UHFFFAOYSA-N,S=C1Nc2ccccc2N1,-2.17668728100,0.38372032791,3,G5,150.20600,2.22549,43.48340,10,1,2,3,0,50,2,0,0,2,31.58,62.90065630040,3.00761954680,362.89835341124
A-2510,1-(hexyloxy)hexane,"InChI=1S/C12H26O/c1-3-5-7-9-11-13-12-10-8-6-4-2/h3-12H2,1-2H3",BPIUIOXAFBGMNB-UHFFFAOYSA-N,CCCCCCOCCCCCC,-4.27030376050,0.00000000000,1,G1,186.33900,4.16360,59.10300,13,1,0,1,10,80,0,0,0,0,9.23,83.86715951570,2.75814981843,71.19366193720
A-2511,3-[[2-(2-cyanoethoxy)ethyl][4-[(4-nitrophenyl)azo]phenyl]amino]propiononitrile,"InChI=1S/C20H20N6O3/c21-11-1-13-25(14-16-29-15-2-12-22)19-7-3-17(4-8-19)23-24-18-5-9-20(10-6-18)26(27)28/h3-10H,1-2,13-16H2",PNWYPUYECVECFF-UHFFFAOYSA-N,[O-][N+](=O)c1ccc(cc1)N=Nc2ccc(cc2)N(CCOCCC#N)CCC#N,-4.59375002670,0.00000000000,1,G1,392.41900,4.66056,107.20640,29,8,0,9,11,148,2,0,0,2,127.91,168.16632607037,1.98195400622,897.79915807694
A-2512,"N,N',N'',N'''-tetrakis(4,6-bis(butyl-(N-methyl-2,2,6,6-tetramethylpiperidin-4-yl)amino)triazin-2-yl)-4,7-diazadecane-1,10-diamine","InChI=1S/C132H250N32/c1-49-57-71-157(97-81-117(9,10)147(41)118(11,12)82-97)109-135-105(136-110(143-109)158(72-58-50-2)98-83-119(13,14)148(42)120(15,16)84-98)133-67-65-69-155(107-139-113(161(75-61-53-5)101-89-125(25,26)151(45)126(27,28)90-101)145-114(140-107)162(76-62-54-6)102-91-127(29,30)152(46)128(31,32)92-102)79-80-156(108-141-115(163(77-63-55-7)103-93-129(33,34)153(47)130(35,36)94-103)146-116(142-108)164(78-64-56-8)104-95-131(37,38)154(48)132(39,40)96-104)70-66-68-134-106-137-111(159(73-59-51-3)99-85-121(17,18)149(43)122(19,20)86-99)144-112(138-106)160(74-60-52-4)100-87-123(21,22)150(44)124(23,24)88-100/h97-104H,49-96H2,1-48H3,(H,133,135,136,143)(H,134,137,138,144)",OWXXKGVQBCBSFJ-UHFFFAOYSA-N,CCCCN(C1CC(C)(C)N(C)C(C)(C)C1)c2nc(NCCCN(CCN(CCCNc3nc(nc(n3)N(CCCC)C4CC(C)(C)N(C)C(C)(C)C4)N(CCCC)C5CC(C)(C)N(C)C(C)(C)C5)c6nc(nc(n6)N(CCCC)C7CC(C)(C)N(C)C(C)(C)C7)N(CCCC)C8CC(C)(C)N(C)C(C)(C)C8)c9nc(nc(n9)N(CCCC)C%10CC(C)(C)N(C)C(C)(C)C%10)N(CCCC)C%11CC(C)(C)N(C)C(C)(C)C%11)nc(n2)N(CCCC)C%12CC(C)(C)N(C)C(C)(C)C%12,-5.35901466810,0.34948500220,2,G3,2285.67600,25.80720,699.52340,164,32,2,32,55,938,4,8,8,12,237.06,1003.76159643928,1.11684275644,4609.94141152398
A-2513,"N-{2-[(E)-2-(2-chloro-4,6-dinitrophenyl)diazen-1-yl]-5-(diethylamino)-4-methoxyphenyl}acetamide","InChI=1S/C19H21ClN6O6/c1-5-24(6-2)16-9-14(21-11(3)27)15(10-18(16)32-4)22-23-19-13(20)7-12(25(28)29)8-17(19)26(30)31/h7-10H,5-6H2,1-4H3,(H,21,27)",LJIKWZXCXJFCCB-UHFFFAOYSA-N,CCN(CC)c1cc(NC(C)=O)c(cc1OC)N=Nc2c(Cl)cc(cc2[N+]([O-])=O)[N+]([O-])=O,-4.66732778330,0.00000000000,1,G1,464.86600,5.38500,119.79550,32,9,1,13,9,170,2,0,0,2,152.57,187.68385082607,2.66398774014,1086.46320097191
A-2514,decahydronaphthalene,"InChI=1S/C10H18/c1-2-6-10-8-4-3-7-9(10)5-1/h9-10H,1-8H2",NNBZCPXTIHJBJL-UHFFFAOYSA-N,C1CCC2CCCCC2C1,-4.14067770530,0.90431019169,4,G4,138.25400,3.36680,43.91600,10,0,0,0,0,58,0,2,2,2,0.00,64.01206775034,1.92536773444,80.60593781761