ID,Name,InChI,InChIKey,SMILES,Solubility,SD,Ocurrences,Group,MolWt,MolLogP,MolMR,HeavyAtomCount,NumHAcceptors,NumHDonors,NumHeteroatoms,NumRotatableBonds,NumValenceElectrons,NumAromaticRings,NumSaturatedRings,NumAliphaticRings,RingCount,TPSA,LabuteASA,BalabanJ,BertzCT
A-4490,samarium(3+) ion trinitrate,InChI=1S/3NO3.Sm/c3*2-1(3)4;/q3*-1;+3,YZDZYSPAJSPJQJ-UHFFFAOYSA-N,[Sm+3].[O-][N+]([O-])=O.[O-][N+]([O-])=O.[O-][N+]([O-])=O,0.48601738730,0.14883322795,3,G5,336.37200,-0.71730,31.08420,13,9,0,13,0,75,0,0,0,0,198.60,101.19605611259,-0.00000004500,112.40947885963
A-4492,3-methylpent-1-yn-3-ol,"InChI=1S/C6H10O/c1-4-6(3,7)5-2/h1,7H,5H2,2-3H3",QXLPXWSKPNOQLE-UHFFFAOYSA-N,CCC(C)(O)C#C,0.01673199240,0.04965355279,3,G5,98.14500,0.78060,29.74780,7,1,1,1,1,40,0,0,0,0,20.23,44.35742074387,3.65579092622,86.84336711742
A-4493,hexanedihydrazide,"InChI=1S/C6H14N4O2/c7-9-5(11)3-1-2-4-6(12)10-8/h1-4,7-8H2,(H,9,11)(H,10,12)",IBVAQQYNSHJXBV-UHFFFAOYSA-N,NNC(=O)CCCCC(=O)NN,-0.23245795110,0.00000000000,1,G1,174.20400,-1.47340,43.12820,12,4,4,6,5,70,0,0,0,0,110.24,70.60678360161,3.21172978347,141.62707505625
A-4495,"1,2-dimethoxyethane","InChI=1S/C4H10O2/c1-5-3-4-6-2/h3-4H2,1-2H3",XTHFKEDIFFGKHM-UHFFFAOYSA-N,COCCOC,1.04516917890,0.00000000000,1,G1,90.12200,0.27920,23.75200,6,2,0,2,3,38,0,0,0,0,18.46,38.06116783003,2.33909231498,17.50977500433
A-4496,"1,4-dioxane",InChI=1S/C4H8O2/c1-2-6-4-3-5-1/h1-4H2,RYHBNJHYFVUHQT-UHFFFAOYSA-N,C1COCCO1,1.05499451520,0.00000000000,1,G1,88.10600,0.03320,21.63800,6,2,0,2,0,36,0,1,1,1,18.46,37.05533667650,2.00000000000,21.01955000865
A-4498,1-methylpyrrolidin-2-one,"InChI=1S/C5H9NO/c1-6-4-2-3-5(6)7/h2-4H2,1H3",SECXISVLQFMRJM-UHFFFAOYSA-N,CN1CCCC1=O,1.00378175080,0.00000000000,1,G1,99.13300,0.23860,26.87100,7,1,0,2,0,40,0,1,1,1,20.31,43.11454410213,2.47843873939,90.08094399727
A-4499,1-methylurea,"InChI=1S/C2H6N2O/c1-4-2(3)5/h1H3,(H3,3,4,5)",XGEGHDBEHXKFPX-UHFFFAOYSA-N,CNC(N)=O,1.13028143920,0.00000000000,1,G1,74.08300,-0.71550,18.64310,5,1,2,3,0,30,0,0,0,0,55.12,30.15546812289,2.84737892309,42.91260938324
A-4500,"2,2'-sulfanediyldiethanol","InChI=1S/C4H10O2S/c5-1-3-7-4-2-6/h5-6H,1-4H2",YODZTKMDCQEPHD-UHFFFAOYSA-N,OCCSCCO,0.91296788950,0.00000000000,1,G1,122.18900,-0.29580,31.49660,7,3,2,3,4,44,0,0,0,0,40.46,47.54565490078,2.44747288788,28.87076540328
A-4501,"2,6-dimethylmorpholine","InChI=1S/C6H8O7.H2O/c7-3(8)1-6(13,5(11)12)2-4(9)10;/h13H,1-2H2,(H,7,8)(H,9,10)(H,11,12);1H2",YASYEJJMZJALEJ-UHFFFAOYSA-N,O.OC(=O)CC(O)(CC(O)=O)C(O)=O,0.67749540550,0.00000000000,1,G1,210.13800,-2.07320,40.70500,14,4,4,8,5,82,0,0,0,0,163.63,77.70621633714,0.00000000000,228.21605924782
A-4503,2-(2-hydroxyethoxy)ethan-1-ol,"InChI=1S/C4H10O3/c5-1-3-7-4-2-6/h5-6H,1-4H2",MTHSVFCYNBDYFN-UHFFFAOYSA-N,OCCOCCO,0.97419866620,0.00000000000,1,G1,106.12100,-1.01240,24.99060,7,3,2,3,4,44,0,0,0,0,49.69,42.53609010492,2.44747288788,26.11587790111
A-4504,2-(2-oxoimidazolidin-1-yl)ethyl methacrylate,"InChI=1S/C9H14N2O3/c1-7(2)8(12)14-6-5-11-4-3-10-9(11)13/h1,3-6H2,2H3,(H,10,13)",PFPUZMSQZJFLBK-UHFFFAOYSA-N,CC(=C)C(=O)OCCN1CCNC1=O,0.70284814630,1.50000000000,2,G2,198.22200,0.13090,50.74470,14,3,1,5,4,78,0,1,1,1,58.64,82.70963904069,2.17895001043,262.78268151049
A-4505,2-(dimethylamino)-2-methylpropan-1-ol,"InChI=1S/C6H15NO.ClH/c1-6(2,5-8)7(3)4;/h8H,5H2,1-4H3;1H",QVNXEWQCNPSJLG-UHFFFAOYSA-N,[H+].[Cl-].CN(C)C(C)(C)CO,0.81345895590,0.00000000000,1,G1,153.65300,-2.56460,35.96380,9,2,1,3,2,58,0,0,0,0,23.47,64.75592064426,-0.00000024500,78.14806784229
A-4507,2-[(2-aminoethyl)amino]ethan-1-ol,"InChI=1S/C4H12N2O/c5-1-2-6-3-4-7/h6-7H,1-5H2",LHIJANUOQQMGNT-UHFFFAOYSA-N,NCCNCCO,0.98232821620,0.00000000000,1,G1,104.15300,-1.47300,29.00990,7,3,3,3,4,44,0,0,0,0,58.28,43.51806400384,2.44747288788,28.87076540328
A-4508,2-[(2-hydroxyethyl)(methyl)amino]ethan-1-ol,"InChI=1S/C5H13NO2/c1-6(2-4-7)3-5-8/h7-8H,2-5H2,1H3",CRVGTESFCCXCTH-UHFFFAOYSA-N,CN(CCO)CCO,0.92385492720,0.00000000000,1,G1,119.16400,-1.09720,31.66860,8,3,2,3,4,50,0,0,0,0,43.70,49.54732066001,2.91961264144,43.69332843437
A-4509,2-[2-(2-hydroxyethoxy)ethoxy]ethan-1-ol,"InChI=1S/C6H14O4/c7-1-3-9-5-6-10-4-2-8/h7-8H,1-6H2",ZIBGPFATKBEMQZ-UHFFFAOYSA-N,OCCOCCOCCO,0.82340525130,0.00000000000,1,G1,150.17400,-0.99580,35.80960,10,4,2,4,7,62,0,0,0,0,58.92,60.37951956322,2.64760484894,49.70950594455
A-4510,2-[bis(2-hydroxyethyl)amino]ethan-1-ol,"InChI=1S/C6H15NO3/c8-4-1-7(2-5-9)3-6-10/h8-10H,1-6H2",GSEJCLTVZPLZKY-UHFFFAOYSA-N,OCCN(CCO)CCO,0.82626028600,0.00000000000,1,G1,149.19000,-1.73470,37.69740,10,4,3,4,6,62,0,0,0,0,63.93,60.70649652660,3.29508211630,55.74860596185
A-4511,2-chloroethan-1-ol,"InChI=1S/C2H5ClO/c3-1-2-4/h4H,1-2H2",SZIFAVKTNFCBPC-UHFFFAOYSA-N,OCCCl,1.09412859670,0.00000000000,1,G1,80.51400,0.21750,17.80580,4,1,1,2,1,26,0,0,0,0,20.23,30.20169312130,1.97474487139,8.00000000000
A-4512,2-cyanoacetic acid,"InChI=1S/C3H3NO2/c4-2-1-3(5)6/h1H2,(H,5,6)",MLIREBYILWEBDM-UHFFFAOYSA-N,OC(=O)CC#N,1.07026441030,0.00000000000,1,G1,85.06200,-0.01532,17.86580,6,2,1,3,1,32,0,0,0,0,61.09,34.81747079033,3.12757995168,91.45654516950
A-4513,2-hydroxyethyl prop-2-enoate,"InChI=1S/C5H8O3/c1-2-5(7)8-4-3-6/h2,6H,1,3-4H2",OMIGHNLMNHATMP-UHFFFAOYSA-N,OCCOC(=O)C=C,0.93510793330,0.00000000000,1,G1,116.11600,-0.29210,28.24180,8,3,1,3,3,46,0,0,0,0,46.53,47.57871753498,3.11143012082,87.67457204071
A-4514,2-hydroxypropanenitrile,"InChI=1S/C3H5NO/c1-3(5)2-4/h3,5H,1H3",WOFDVDFSGLBFAC-UHFFFAOYSA-N,CC(O)C#N,1.14825869080,0.00000000000,1,G1,71.07900,-0.10922,17.29380,5,2,1,2,0,28,0,0,0,0,44.02,30.65594869029,2.93944724632,52.40362799391
A-4515,2-methylbut-3-yn-2-ol,"InChI=1S/C5H8O/c1-4-5(2,3)6/h1,6H,2-3H3",CEBKHWWANWSNTI-UHFFFAOYSA-N,CC(C)(O)C#C,1.07511106170,0.00000000000,1,G1,84.11800,0.39050,25.13080,6,1,1,1,0,34,0,0,0,0,20.23,37.99247862947,3.55273435452,70.91968453854
A-4516,2-methylpropan-2-amine,"InChI=1S/C4H11N/c1-4(2,3)5/h5H2,1-3H3",YBRBMKDOPFTVDT-UHFFFAOYSA-N,CC(C)(C)N,1.13585098190,0.00000000000,1,G1,73.13900,0.74360,23.94040,5,1,1,1,0,32,0,0,0,0,26.02,33.17396806803,3.02371578407,19.11941547876
A-4517,2-methylpropan-2-ol,"InChI=1S/C4H10O/c1-4(2,3)5/h5H,1-3H3",DKGAVHZHDRPRBM-UHFFFAOYSA-N,CC(C)(C)O,1.13004701170,0.00000000000,1,G1,74.12300,0.77720,21.97180,5,1,1,1,0,32,0,0,0,0,20.23,32.62831112322,3.02371578407,19.11941547876
A-4518,2-methylpyridine,"InChI=1S/C6H7N/c1-6-4-2-3-5-7-6/h2-5H,1H3",BSKHPKMHTQYZBB-UHFFFAOYSA-N,Cc1ccccn1,1.03091506040,0.00000000000,1,G1,93.12900,1.39002,28.97400,7,1,0,1,0,36,1,0,0,1,12.89,43.01599321484,3.02146530972,134.10736969541
A-4519,2-sulfanylethan-1-ol,"InChI=1S/C2H6OS/c3-1-2-4/h3-4H,1-2H2",DGVVWUTYPXICAM-UHFFFAOYSA-N,OCCS,1.10714882530,0.00000000000,1,G1,78.13600,-0.09150,20.93880,4,2,2,2,1,26,0,0,0,0,20.23,31.05349355782,1.97474487139,8.00000000000
A-4520,3-(dimethylamino)propan-1-ol,"InChI=1S/C5H13NO/c1-6(2)4-3-5-7/h7H,3-5H2,1-2H3",PYSGFFTXMUWEOT-UHFFFAOYSA-N,CN(C)CCCO,0.98646761750,0.00000000000,1,G1,103.16500,-0.06960,30.25680,7,2,1,2,3,44,0,0,0,0,23.47,44.75308690782,2.67825774316,37.06139398862
A-4521,"3-methyl-1-vinyl-2,3-dihydro-1H-imidazol-1-ium methyl sulfate","InChI=1S/C6H9N2.CH4O4S/c1-3-8-5-4-7(2)6-8;1-5-6(2,3)4/h3-6H,1H2,2H3;1H3,(H,2,3,4)/q+1;/p-1",BZVFPIHTRLNAQA-UHFFFAOYSA-M,CO[S]([O-])(=O)=O.C[n+]1ccn(C=C)c1,0.65708408290,0.00000000000,1,G1,220.25000,-0.49390,48.70120,14,5,0,7,2,80,1,0,0,1,75.24,83.00733618919,0.00000025458,382.14898771933
A-4522,4-hydroxybenzenesulfonic acid,"InChI=1S/C6H6O4S/c7-5-1-3-6(4-2-5)11(8,9)10/h1-4,7H,(H,8,9,10)",FEPBITJSIHRMRT-UHFFFAOYSA-N,Oc1ccc(cc1)[S](O)(=O)=O,0.75900919390,0.05995770515,2,G3,174.17700,0.63890,37.92140,11,3,2,5,1,60,1,0,0,1,74.60,63.85427288173,3.20151593107,337.34996199574
A-4523,4-hydroxybutyl prop-2-enoate,"InChI=1S/C7H12O3/c1-2-7(9)10-6-4-3-5-8/h2,8H,1,3-6H2",NDWUBGAGUCISDV-UHFFFAOYSA-N,OCCCCOC(=O)C=C,0.84112510150,0.00000000000,1,G1,144.17000,0.48810,37.47580,10,3,1,3,5,58,0,0,0,0,46.53,60.30860176377,3.03387349474,109.41884680992
A-4524,"N,N-dimethylacetamide",InChI=1S/C4H9NO/c1-4(6)5(2)3/h1-3H3,FXHOOIRPVKKKFG-UHFFFAOYSA-N,CN(C)C(C)=O,1.05987216330,0.02506391835,2,G3,87.12200,0.09450,24.36800,6,1,0,2,0,36,0,0,0,0,20.31,37.75543314127,3.25758616123,58.56842503029
A-4525,N-(1-cyanoethyl)formamide,"InChI=1S/C4H6N2O/c1-4(2-5)6-3-7/h3-4H,1H3,(H,6,7)",ONONIESHMTZAKB-UHFFFAOYSA-N,CC(NC=O)C#N,1.00830885790,0.00000000000,1,G1,98.10500,-0.35552,24.27470,7,2,1,3,2,38,0,0,0,0,52.89,41.93804133614,3.20997169069,94.35314212174
A-4526,N-ethylethanamine,"InChI=1S/C4H11N/c1-3-5-4-2/h5H,3-4H2,1-2H3",HPNMFZURTQLUMO-UHFFFAOYSA-N,CCNCC,1.13585098190,0.00000000000,1,G1,73.13900,0.61580,24.21770,5,1,1,1,2,32,0,0,0,0,12.03,33.38393955463,2.19060968716,11.11941547876
A-4527,N-methylacetamide,"InChI=1S/C3H7NO/c1-3(5)4-2/h1-2H3,(H,4,5)",OHLUUHNLEMFGTQ-UHFFFAOYSA-N,CNC(C)=O,1.13611232960,0.00000000000,1,G1,73.09500,-0.24770,19.74070,5,1,1,2,0,30,0,0,0,0,29.10,31.18051954027,2.84737892309,42.15772188108
A-4528,aziridine,"InChI=1S/C2H5N/c1-2-3-1/h3H,1-2H2",NOWKCMXCCJGMRR-UHFFFAOYSA-N,C1CN1,1.36583521180,0.00000000000,1,G1,43.06900,-0.41040,12.86970,3,1,1,1,0,18,0,1,1,1,21.94,19.64822417230,2.25000000000,7.50977500433
A-4529,"butane-1,2-diol","InChI=1S/C4H10O2/c1-2-4(6)3-5/h4-6H,2-3H2,1H3",BMRWNKZVCUKKSR-UHFFFAOYSA-N,CCC(O)CO,1.04516917890,0.00000000000,1,G1,90.12200,-0.25040,23.38360,6,2,2,2,2,38,0,0,0,0,40.46,37.42254487541,2.75418478604,24.72905595320
A-4530,"butane-2,3-diol","InChI=1S/C4H10O2/c1-3(5)4(2)6/h3-6H,1-2H3/t3-,4+",OWBTYPJTUOEWEK-ZXZARUISSA-N,C[C@@H](O)[C@H](C)O,1.04516917890,0.00000000000,1,G1,90.12200,-0.25200,23.36160,6,2,2,2,1,38,0,0,0,0,40.46,37.42254487541,2.99349724348,26.52932501298
A-4531,cyclohexanamine,"InChI=1S/C6H13N/c7-6-4-2-1-3-5-6/h6H,1-5,7H2",PAFZNILMFXTMIY-UHFFFAOYSA-N,NC1CCCCC1,1.00358903280,0.00000000000,1,G1,99.17700,1.27780,31.06040,7,1,1,1,0,42,0,1,1,1,26.02,44.89802114330,2.12291794996,46.14170945008
A-4532,cyclopropanamine,"InChI=1S/C3H7N/c4-3-1-2-3/h3H,1-2,4H2",HTJDQJBWANPRPF-UHFFFAOYSA-N,NC1CC1,1.24339431630,0.00000000000,1,G1,57.09600,0.10750,17.20940,4,1,1,1,0,24,0,1,1,1,26.02,25.80319480011,2.17109831787,22.46439344671
A-4533,ethanedioyl dichloride,InChI=1S/C2Cl2O2/c3-1(5)2(4)6,CTSLXHKWHWQRSH-UHFFFAOYSA-N,ClC(=O)C(Cl)=O,0.89644940630,0.00000000000,1,G1,126.92600,0.51720,21.72000,6,2,0,4,1,34,0,0,0,0,34.14,44.03376979608,3.56770345504,75.54887502163
A-4534,formamide,"InChI=1S/CH3NO/c2-1-3/h1H,(H2,2,3)",ZHNUHDYFZUAESO-UHFFFAOYSA-N,NC=O,1.34639197580,0.00000000000,1,G1,45.04100,-0.89850,10.25140,3,1,1,2,0,18,0,0,0,0,43.09,18.24066382489,2.18749609737,12.26466250649
A-4535,methanesulfonic acid,"InChI=1S/CH4O3S/c1-5(2,3)4/h1H3,(H,2,3,4)",AFVFQIVMOAPDHO-UHFFFAOYSA-N,C[S](O)(=O)=O,1.01724497910,0.00000000000,1,G1,96.10700,-0.49600,17.47260,5,2,1,4,0,32,0,0,0,0,54.37,30.36788703787,4.06294229897,90.06147084053
A-4536,methyl hydroxymethoxyacetate,"InChI=1S/C4H8O4/c1-7-4(6)2-8-3-5/h5H,2-3H2,1H3",RNVVYVPDHMKDTL-UHFFFAOYSA-N,COC(=O)COCO,0.92044252840,0.00000000000,1,G1,120.10400,-0.87420,25.05380,8,4,1,4,3,48,0,0,0,0,55.76,47.01692368227,2.98859864797,70.43856189775
A-4537,methylhydrazine,"InChI=1S/CH6N2/c1-3-2/h3H,2H2,1H3",HDZGCSFEDULWCS-UHFFFAOYSA-N,CNN,1.33655350820,0.00000000000,1,G1,46.07300,-0.92050,13.24710,3,2,2,2,0,20,0,0,0,0,38.05,19.59913992869,1.63299316186,2.75488750216
A-4538,oxan-2-one,InChI=1S/C5H8O2/c6-5-3-1-2-4-7-5/h1-4H2,OZJPLYNZGCXSJM-UHFFFAOYSA-N,O=C1CCCCO1,0.99949217250,0.00000000000,1,G1,100.11700,0.71350,24.81000,7,2,0,2,0,40,0,1,1,1,26.30,42.46825566144,2.24954409473,70.14933958999
A-4539,"pentane-1,2-diol","InChI=1S/C5H12O2/c1-2-3-5(7)4-6/h5-7H,2-4H2,1H3",WCVRQHFDJLLWFE-UHFFFAOYSA-N,CCCC(O)CO,0.98234489560,0.00000000000,1,G1,104.14900,0.13970,28.00060,7,2,2,2,3,44,0,0,0,0,40.46,43.78748698981,2.83181996607,37.06139398862
A-4540,"pentane-1,5-diol","InChI=1S/C5H12O2/c6-4-2-1-3-5-7/h6-7H,1-5H2",ALQSHHUCVQOPAS-UHFFFAOYSA-N,OCCCCCO,0.98234489560,0.00000000000,1,G1,104.14900,0.14130,28.02260,7,2,2,2,4,44,0,0,0,0,40.46,43.78748698981,2.44747288788,25.26112492884
A-4544,"propane-1,2-diamine","InChI=1S/C3H10N2/c1-3(5)2-4/h3H,2,4-5H2,1H3",AOHJOMMDDJHIJH-UHFFFAOYSA-N,CC(N)CN,1.13002357590,0.00000000000,1,G1,74.12700,-0.70770,22.70380,5,2,2,2,1,32,0,0,0,0,52.04,32.14891665065,2.53953886136,18.85475297227
A-4545,propanoic acid,"InChI=1S/C3H6O2/c1-2-3(4)5/h2H2,1H3,(H,4,5)",XBDQKXXYIPTUBI-UHFFFAOYSA-N,CCC(O)=O,1.13030488890,0.00000000000,1,G1,74.07900,0.48100,17.92680,5,1,1,2,1,30,0,0,0,0,37.30,30.42489110886,2.84737892309,40.15772188108
A-4546,sodium trichloroacetate,"InChI=1S/C2HCl3O2.Na/c3-2(4,5)1(6)7;/h(H,6,7);/q;+1/p-1",SAQSTQBVENFSKT-UHFFFAOYSA-M,[Na+].[O-]C(=O)C(Cl)(Cl)Cl,0.73196289290,0.03959062305,2,G3,185.36900,-2.88950,25.29700,8,2,0,6,0,42,0,0,0,0,40.13,83.38314729782,0.00000000000,87.77443751082
A-4547,"tetrasodium 5-({4-[bis(2-hydroxypropyl)amino]-6-[(4-sulfonatophenyl)amino]-1,3,5-triazin-2-yl}amino)-2-[(E)-2-[4-({4-[bis(2-hydroxypropyl)amino]-6-[(4-sulfonatophenyl)amino]-1,3,5-triazin-2-yl}amino)-2-sulfonatophenyl]ethenyl]benzene-1-sulfonate","InChI=1S/C44H52N12O16S4.4Na/c1-25(57)21-55(22-26(2)58)43-51-39(45-31-11-15-35(16-12-31)73(61,62)63)49-41(53-43)47-33-9-7-29(37(19-33)75(67,68)69)5-6-30-8-10-34(20-38(30)76(70,71)72)48-42-50-40(46-32-13-17-36(18-14-32)74(64,65)66)52-44(54-42)56(23-27(3)59)24-28(4)60;;;;/h5-20,25-28,57-60H,21-24H2,1-4H3,(H,61,62,63)(H,64,65,66)(H,67,68,69)(H,70,71,72)(H2,45,47,49,51,53)(H2,46,48,50,52,54);;;;/q;4*+1/p-4/b6-5+;;;;",NTHKAJBKFNFLHL-WPYDVODASA-J,[Na+].[Na+].[Na+].[Na+].CC(O)CN(CC(C)O)c1nc(Nc2ccc(cc2)[S]([O-])(=O)=O)nc(Nc3ccc(/C=C/c4ccc(Nc5nc(Nc6ccc(cc6)[S]([O-])(=O)=O)nc(n5)N(CC(C)O)CC(C)O)cc4[S]([O-])(=O)=O)c(c3)[S]([O-])(=O)=O)n1,-0.08677399280,0.00000000000,1,G1,1221.16400,-10.03020,270.48280,80,28,8,36,24,408,6,0,0,6,441.66,549.51854221950,0.00000546749,3309.79975889552
A-4548,tributyl(methyl)azanium chloride,"InChI=1S/C13H30N.HI/c1-5-8-11-14(4,12-9-6-2)13-10-7-3;/h5-13H2,1-4H3;1H/q+1;/p-1",DXJLCRNXYNRGRA-UHFFFAOYSA-M,[I-].CCCC[N+](C)(CCCC)CCCC,0.48506195620,0.00000000000,1,G1,327.29400,0.83730,65.50940,15,0,0,2,9,94,0,0,0,0,0.00,114.23215397402,0.00000000000,103.92992295573
A-4549,trifluoroacetic acid,"InChI=1S/C2HF3O2/c3-2(4,5)1(6)7/h(H,6,7)",DTQVDTLACAAQTR-UHFFFAOYSA-N,OC(=O)C(F)(F)F,0.94301134550,0.00000000000,1,G1,114.02200,0.63330,13.69080,7,1,1,5,0,42,0,0,0,0,37.30,36.55655520324,3.79111841709,83.42592196522
A-4551,"1,2-oxathiolane 2,2-dioxide",InChI=1S/C3H6O3S/c4-7(5)3-1-2-6-7/h1-3H2,FSSPGSAQUIYDCN-UHFFFAOYSA-N,O=[S]1(=O)CCCO1,-0.08687569380,0.00000000000,1,G1,122.14500,-0.26350,24.35580,7,3,0,4,0,42,0,1,1,1,43.37,42.41125159045,2.76202046783,133.56295496093
A-4553,"disodium 2,2'-ethene-1,2-diylbis(5-aminobenzenesulfonate)","InChI=1S/C14H14N2O6S2.2Na/c15-11-5-3-9(13(7-11)23(17,18)19)1-2-10-4-6-12(16)8-14(10)24(20,21)22;;/h1-8H,15-16H2,(H,17,18,19)(H,20,21,22);;/q;2*+1/p-2/b2-1+;;",YAKFHPREDNNSFX-SEPHDYHBSA-L,[Na+].[Na+].Nc1ccc(\C=C\c2ccc(N)cc2[S]([O-])(=O)=O)c(c1)[S]([O-])(=O)=O,-0.61739040150,0.00000000000,1,G1,414.37200,-5.16240,86.56320,26,8,2,12,4,128,2,0,0,2,166.44,195.29263118170,0.00000312500,953.89768218506
A-4556,yttrium(3+) acetate,"InChI=1S/3C2H4O2.Y/c3*1-2(3)4;/h3*1H3,(H,3,4);/q;;;+3/p-3",JUWHRRAPBUAYTA-UHFFFAOYSA-K,[Y+3].CC([O-])=O.CC([O-])=O.CC([O-])=O,-0.42494367430,0.00000000000,1,G1,266.03800,-3.73390,32.04300,13,6,0,7,0,72,0,0,0,0,120.39,100.82655384294,-0.00000004500,114.67414136612
A-4557,3-aminobenzenesulfonic acid,"InChI=1S/C6H7NO3S/c7-5-2-1-3-6(4-5)11(8,9)10/h1-4H,7H2,(H,8,9,10)",ZAJAQTYSTDTMCU-UHFFFAOYSA-N,Nc1cccc(c1)[S](O)(=O)=O,-1.20510657950,0.18281793506,4,G5,173.19300,0.51550,40.66900,11,3,2,5,1,60,1,0,0,1,80.39,64.39992982655,3.27791058458,357.84507449357
A-4558,6'-methoxycinchonan-9-ol sulfate (salt),"InChI=1S/C20H24N2O2.H2O4S/c1-3-13-12-22-9-7-14(13)10-19(22)20(23)16-6-8-21-18-5-4-15(24-2)11-17(16)18;1-5(2,3)4/h3-6,8,11,13-14,19-20,23H,1,7,9-10,12H2,2H3;(H2,1,2,3,4)",AKYHKWQPZHDOBW-UHFFFAOYSA-N,COc1ccc2nccc(C(O)C3CC4CCN3CC4C=C)c2c1.O[S](O)(=O)=O,-1.59240604150,0.00000000000,1,G1,422.50300,2.52040,109.20420,29,6,3,9,4,158,2,3,3,5,120.19,169.95113099503,0.00000043142,972.09529688071
A-4559,3-bromo-1-(3-chloropyridin-2-yl)-1H-pyrazole-5-carboxylic acid,"InChI=1S/C9H5BrClN3O2/c10-7-4-6(9(15)16)14(13-7)8-5(11)2-1-3-12-8/h1-4H,(H,15,16)",FORBXGROTPOMEH-UHFFFAOYSA-N,OC(=O)c1cc(Br)nn1c2ncccc2Cl,-1.44893464240,1.50258098991,7,G4,302.51500,2.38140,61.02830,16,4,1,7,2,82,2,0,0,2,68.01,103.80689056263,2.64328491042,555.43716826105
A-4560,2-methoxy-2-methylbutane,"InChI=1S/C6H14O/c1-5-6(2,3)7-4/h5H2,1-4H3",HVZJRWJGKQPSFL-UHFFFAOYSA-N,CCC(C)(C)OC,-0.97956367650,0.00994837345,3,G5,102.17700,1.82140,31.37900,7,1,0,1,2,44,0,0,0,0,9.23,45.67750682932,3.36043514270,42.14170945008
A-4567,1-hydroxy-1-phenylacetone,"InChI=1S/C9H10O2/c1-7(10)9(11)8-5-3-2-4-6-8/h2-6,9,11H,1H3",ZBFFNPODXBJBPW-UHFFFAOYSA-N,CC(=O)C(O)c1ccccc1,-1.17660342440,0.00000000000,1,G1,150.17700,1.30900,42.08280,11,2,1,2,2,58,1,0,0,1,37.30,65.48198531493,2.85117789016,240.99946272620
A-4569,diammonium carbonate,"InChI=1S/CH2O3.2H3N/c2-1(3)4;;/h(H2,2,3,4);2*1H3",PRKQVKDSMLBJBJ-UHFFFAOYSA-N,N.N.OC(O)=O,-0.98266011440,0.00000000000,1,G1,96.08600,0.54640,20.69780,6,3,4,5,0,40,0,0,0,0,127.53,34.76074136016,-0.00000004500,31.77443751082
A-4570,trimethoxymethane,"InChI=1S/C4H10O3/c1-5-4(6-2)7-3/h4H,1-3H3",PYOKUURKVVELLB-UHFFFAOYSA-N,COC(OC)OC,-1.02580133380,0.00000000000,1,G1,106.12100,0.20920,24.81500,7,3,0,3,3,44,0,0,0,0,27.69,43.17471305954,2.99230288319,28.40637195657
A-4571,"3,3,3-tribromo-2,2-dimethylpropan-1-ol","InChI=1S/C5H9Br3O/c6-1-5(2-7,3-8)4-9/h9H,1-4H2",QEJPOEGPNIVDMK-UHFFFAOYSA-N,OCC(CBr)(CBr)CBr,-2.22610951890,0.00000000000,1,G1,324.83800,2.14980,50.90080,9,1,1,4,4,56,0,0,0,0,20.23,80.59589605454,3.82468420321,55.09358392980
A-4572,"2-amino-4,5-dichlorobenzene-1-sulfonic acid","InChI=1S/C6H5Cl2NO3S/c7-3-1-5(9)6(2-4(3)8)13(10,11)12/h1-2H,9H2,(H,10,11,12)",AKLDPNVZTZIVFA-UHFFFAOYSA-N,Nc1cc(Cl)c(Cl)cc1[S](O)(=O)=O,-2.10521069170,0.14158354829,3,G5,242.08300,1.82230,50.68900,13,3,2,7,1,72,1,0,0,1,80.39,85.00646228031,3.50155273448,443.43774069734
A-4576,2-phenyl-1H-imidazole,"InChI=1S/C9H8N2/c1-2-4-8(5-3-1)9-10-6-7-11-9/h1-7H,(H,10,11)",ZCUJYXPAKHMBAZ-UHFFFAOYSA-N,[nH]1ccnc1c2ccccc2,-1.88938304040,0.00000000000,1,G1,144.17700,2.07670,44.02370,11,1,1,2,1,54,2,0,0,2,28.68,64.91730572752,2.46477697925,310.55349518662
A-4577,strontium tartarate,"InChI=1S/C4H6O6.Sr/c5-1(3(7)8)2(6)4(9)10;/h1-2,5-6H,(H,7,8)(H,9,10);",YRUOECKPPZQJHI-UHFFFAOYSA-N,[Sr].OC(C(O)C(O)=O)C(O)=O,-2.10652719980,0.00000000000,1,G1,237.70600,-2.50340,33.03920,11,4,4,7,3,60,0,0,0,0,115.06,98.72205236468,0.00000000000,138.66127285261
A-4579,2-[(2-nitrophenyl)amino]ethan-1-ol,"InChI=1S/C8H10N2O3/c11-6-5-9-7-3-1-2-4-8(7)10(12)13/h1-4,9,11H,5-6H2",LFOUYKNCQNVIGI-UHFFFAOYSA-N,OCCNc1ccccc1[N+]([O-])=O,-1.99332658550,0.00000000000,1,G1,182.17900,0.99900,48.67190,13,4,2,5,4,70,1,0,0,1,75.40,75.15835900659,2.84492564073,301.19554276161
A-4580,"5-methyl-1,2-oxazole-4-carboxylate","InChI=1S/C5H5NO3/c1-3-4(5(7)8)2-6-9-3/h2H,1H3,(H,7,8)/p-1",VQBXUKGMJCPBMF-UHFFFAOYSA-M,Cc1oncc1C([O-])=O,-1.05536111020,0.00000000000,1,G1,126.09100,-0.65348,25.57050,9,4,0,4,1,48,1,0,0,1,66.16,51.08237675132,3.07666343999,227.86190855872
A-4582,"2,5,6-trimethylcyclohex-2-en-1-one","InChI=1S/C9H14O/c1-6-4-5-7(2)9(10)8(6)3/h5-6,8H,4H2,1-3H3",QAQCUBLNHBKTRM-UHFFFAOYSA-N,CC1CC=C(C)C(=O)C1C,-1.88526696190,0.00000000000,1,G1,138.21000,2.17770,41.70900,10,1,0,1,0,56,0,0,1,1,17.07,62.12487585733,2.80710186275,179.16728769260
A-4584,"2-ethylhexanoic acid, manganese salt","InChI=1S/C8H16O2.Mn/c1-3-5-6-7(4-2)8(9)10;/h7H,3-6H2,1-2H3,(H,9,10);/q;+2",ODUSECXQXODQGI-UHFFFAOYSA-N,[Mn++].CCCCC(CC)C(O)=O,-2.04391216710,0.39502523685,2,G3,199.15200,2.28490,40.94180,11,1,1,3,5,65,0,0,0,0,37.30,78.84522195307,0.00000000000,104.26518047668
A-4587,"3-[(2-ethylhexyl)oxy]propane-1,2-diol","InChI=1S/C11H24O3/c1-3-5-6-10(4-2)8-14-9-11(13)7-12/h10-13H,3-9H2,1-2H3",NCZPCONIKBICGS-UHFFFAOYSA-N,CCCCC(CC)COCC(O)CO,-2.05501711870,0.00000000000,1,G1,204.31000,1.57260,57.21760,14,3,2,3,9,86,0,0,0,0,49.69,87.09068490569,3.41545483416,117.10027141925