ID,Name,InChI,InChIKey,SMILES,Solubility,SD,Ocurrences,Group,MolWt,MolLogP,MolMR,HeavyAtomCount,NumHAcceptors,NumHDonors,NumHeteroatoms,NumRotatableBonds,NumValenceElectrons,NumAromaticRings,NumSaturatedRings,NumAliphaticRings,RingCount,TPSA,LabuteASA,BalabanJ,BertzCT
A-2287,docosanoic acid,"InChI=1S/C22H44O2/c1-2-3-4-5-6-7-8-9-10-11-12-13-14-15-16-17-18-19-20-21-22(23)24/h2-21H2,1H3,(H,23,24)",UKMSUNONTOPOIO-UHFFFAOYSA-N,CCCCCCCCCCCCCCCCCCCCCC(O)=O,-7.32811446020,1.74742501085,2,G2,340.59200,7.89290,105.64980,24,1,1,2,20,144,0,0,0,0,37.30,151.35879128240,2.96537893864,250.35446975062
A-2288,3-phenylpropyl benzoate,"InChI=1S/C16H16O2/c17-16(15-11-5-2-6-12-15)18-13-7-10-14-8-3-1-4-9-14/h1-6,8-9,11-12H,7,10,13H2",ONPVMQLRVWKFFL-UHFFFAOYSA-N,O=C(OCCCc1ccccc1)c2ccccc2,-4.80097378880,0.00000000000,1,G1,240.30200,3.47620,71.48750,18,2,0,2,5,92,2,0,0,2,26.30,107.22333311270,1.71549793205,476.96485152089
A-2289,2-methylheptan-1-ol,"InChI=1S/C8H18O/c1-3-4-5-6-8(2)7-9/h8-9H,3-7H2,1-2H3",QZESEQBMSFFHRY-UHFFFAOYSA-N,CCCCCC(C)CO,-2.52812707070,0.00000000000,1,G1,130.23100,2.19510,40.39180,9,1,1,1,5,56,0,0,0,0,20.23,58.08807958080,2.87662259508,52.52932501298
A-2292,palladium (II) di(4-oxopent-2-en-2-oate),"InChI=1S/2C5H7O2.Pd/c2*1-4(6)3-5(2)7;/h2*3H,1-2H3;/q2*-1;+2",PLYDYQGKZLDFTI-UHFFFAOYSA-N,[Pd++].CC(=O)[CH-]C(C)=O.CC(=O)[CH-]C(C)=O,-7.43846109670,0.00000000000,1,G1,304.63800,0.73488,51.32400,15,4,0,5,4,88,0,0,0,0,68.28,103.45491589617,-0.00000018000,195.80694332859
A-2293,"3,4,9,10-Perylenetetracarboxylic diimide","InChI=1S/C24H10N2O4/c27-21-13-5-1-9-10-2-6-15-20-16(24(30)26-23(15)29)8-4-12(18(10)20)11-3-7-14(22(28)25-21)19(13)17(9)11/h1-8H,(H,25,27,28)(H,26,29,30)",KJOLVZJFMDVPGB-UHFFFAOYSA-N,O=C1NC(=O)c2ccc3c4ccc5C(=O)NC(=O)c6ccc(c7ccc1c2c37)c4c56,-7.59145863400,0.00000000000,1,G1,390.35400,3.01620,118.81740,30,4,2,6,0,140,7,0,0,7,99.86,164.56482443225,1.94705790055,1796.55536206005
A-2294,"1-hydroxy-4-[(4-methylphenyl)amino]-9,10-dihydroanthracene-9,10-dione","InChI=1S/C21H15NO3/c1-12-6-8-13(9-7-12)22-16-10-11-17(23)19-18(16)20(24)14-4-2-3-5-15(14)21(19)25/h2-11,22-23H,1H3",LJFWQNJLLOFIJK-UHFFFAOYSA-N,Cc1ccc(Nc2ccc(O)c3C(=O)c4ccccc4C(=O)c23)cc1,-7.54918131240,0.00000000000,1,G1,329.35500,4.21962,95.87550,25,4,2,4,2,122,3,0,1,4,66.40,144.30172685718,1.88058453114,1019.81119753740
A-2295,oxygen(-2) anion; zirconium(+4) cation; sulfate,"InChI=1S/H2O4S.O.Zr/c1-5(2,3)4;;/h(H2,1,2,3,4);;/q;-2;+4/p-2",QRTRRDMHGTZPBF-UHFFFAOYSA-L,[O--].[Zr+4].[O-][S]([O-])(=O)=O,-7.70604747910,0.00000000000,1,G1,203.28600,-1.45930,11.16110,7,4,0,7,0,40,0,0,0,0,108.76,59.73519357073,-0.00000008000,91.24856184822
A-2297,"2-ethyl-2-[2-(6-methoxy-3,4-dihydro-2H-naphthalen-1-ylidene)ethyl]cyclopentane-1,3-dione","InChI=1S/C20H24O3/c1-3-20(18(21)9-10-19(20)22)12-11-14-5-4-6-15-13-16(23-2)7-8-17(14)15/h7-8,11,13H,3-6,9-10,12H2,1-2H3/b14-11+",OMXFYKCGCDGYNC-SDNWHVSQSA-N,CCC1(C\C=C2/CCCc3cc(OC)ccc23)C(=O)CCC1=O,-4.17250424200,0.00000000000,1,G1,312.40900,4.13340,90.49800,23,3,0,3,4,122,1,1,2,3,43.37,137.27591681140,1.89875362352,653.46440115820
A-2298,octadecane,"InChI=1S/C18H38/c1-3-5-7-9-11-13-15-17-18-16-14-12-10-8-6-4-2/h3-18H2,1-2H3",RZJRJXONCZWCBN-UHFFFAOYSA-N,CCCCCCCCCCCCCCCCCC,-7.62753994920,0.00000000000,1,G1,254.50200,7.26780,85.22000,18,0,0,0,15,110,0,0,0,0,0.00,116.94326697257,2.86230620919,112.00000000000
A-2299,"8,8-dimethyl-7-propan-2-yl-6,10-dioxaspiro[4.5]decane","InChI=1S/C13H24O2/c1-10(2)11-12(3,4)9-14-13(15-11)7-5-6-8-13/h10-11H,5-9H2,1-4H3",NKDJGNROVOPIGT-UHFFFAOYSA-N,CC(C)C1OC2(CCCC2)OCC1(C)C,-3.52424377050,0.00000000000,1,G1,212.33300,3.35430,60.64300,15,2,0,2,1,88,0,2,2,2,18.46,93.33398455254,2.12088371045,226.69045208703
A-2301,"2-ethylhexyl 4-({bis[(4-{[(2-ethylhexyl)oxy]carbonyl}phenyl)amino]-1,3,5-triazin-2-yl}amino)benzoate","InChI=1S/C48H66N6O6/c1-7-13-16-34(10-4)31-58-43(55)37-19-25-40(26-20-37)49-46-52-47(50-41-27-21-38(22-28-41)44(56)59-32-35(11-5)17-14-8-2)54-48(53-46)51-42-29-23-39(24-30-42)45(57)60-33-36(12-6)18-15-9-3/h19-30,34-36H,7-18,31-33H2,1-6H3,(H3,49,50,51,52,53,54)",JGUMTYWKIBJSTN-UHFFFAOYSA-N,CCCCC(CC)COC(=O)c1ccc(Nc2nc(Nc3ccc(cc3)C(=O)OCC(CC)CCCC)nc(Nc4ccc(cc4)C(=O)OCC(CC)CCCC)n2)cc1,-8.21647837630,0.38232159585,4,G5,823.09200,12.22200,239.76660,60,12,3,12,27,324,4,0,0,4,153.66,356.58985530871,1.48574935558,1657.30901056065
A-2304,methyl palmitate,"InChI=1S/C17H34O2/c1-3-4-5-6-7-8-9-10-11-12-13-14-15-16-17(18)19-2/h3-16H2,1-2H3",FLIACVVOZYBSBS-UHFFFAOYSA-N,CCCCCCCCCCCCCCCC(=O)OC,-7.83003823510,0.00000000000,1,G1,270.45700,5.64070,82.32800,19,2,0,2,14,114,0,0,0,0,26.30,119.85339218773,2.96925444900,189.70108621088
A-2307,"Bis(2-hydroxyethyl) 2-[(6-oxobenzo[c][2,1]benzoxaphosphinin-6-yl)methyl]butanedioate","InChI=1S/C21H23O8P/c22-9-11-27-20(24)13-15(21(25)28-12-10-23)14-30(26)19-8-4-2-6-17(19)16-5-1-3-7-18(16)29-30/h1-8,15,22-23H,9-14H2",MJOBQUIJUFKMPR-UHFFFAOYSA-N,OCCOC(=O)CC(C[P]1(=O)Oc2ccccc2c3ccccc13)C(=O)OCCO,-4.46177956170,0.00000000000,1,G1,434.38100,1.72670,108.81010,30,8,2,9,9,160,2,0,1,3,119.36,173.39556275282,1.91476043976,957.52747850657
A-2308,"2,2-dimethyl-1,3-dihydroperimidine","InChI=1S/C13H14N2/c1-13(2)14-10-7-3-5-9-6-4-8-11(15-13)12(9)10/h3-8,14-15H,1-2H3",DETLTZYXZWIXIB-UHFFFAOYSA-N,CC1(C)Nc2cccc3cccc(N1)c23,-2.92989889510,0.00000000000,1,G1,198.26900,3.41330,65.27240,15,2,2,2,0,76,2,0,1,3,24.06,89.30178720811,2.36218277610,486.29703304950
A-2309,potassium 16-methylheptadecanoate,"InChI=1S/C18H36O2.K/c1-17(2)15-13-11-9-7-5-3-4-6-8-10-12-14-16-18(19)20;/h17H,3-16H2,1-2H3,(H,19,20);/q;+1/p-1",NGNZTXNWCGRXKL-UHFFFAOYSA-M,[K+].CC(C)CCCCCCCCCCCCCCC([O-])=O,-8.14690152360,3.87014513607,3,G4,322.57400,1.85770,84.48300,21,2,0,3,15,120,0,0,0,0,40.13,174.82158752017,0.00000000000,217.26386583101
A-2312,2-[(4-{[2-(4-cyclohexylphenoxy)ethyl](ethyl)amino}-2-methylphenyl)methylidene]propanedinitrile,"InChI=1S/C27H31N3O/c1-3-30(26-12-9-25(21(2)17-26)18-22(19-28)20-29)15-16-31-27-13-10-24(11-14-27)23-7-5-4-6-8-23/h9-14,17-18,23H,3-8,15-16H2,1-2H3",NQAJBKZEQYYFGK-UHFFFAOYSA-N,CCN(CCOc1ccc(cc1)C2CCCCC2)c3ccc(C=C(C#N)C#N)c(C)c3,-8.38609485590,0.30904539127,3,G5,413.56500,6.37858,126.03200,31,4,0,4,8,160,2,1,1,3,60.05,185.92573311844,1.56590814843,957.02163088942
A-2313,"2,4-ditert-butyl-6-(3,5-ditert-butyl-2-hydroxyphenyl)phenol","InChI=1S/C28H42O2/c1-25(2,3)17-13-19(23(29)21(15-17)27(7,8)9)20-14-18(26(4,5)6)16-22(24(20)30)28(10,11)12/h13-16,29-30H,1-12H3",GDGDLBOVIAWEAD-UHFFFAOYSA-N,CC(C)(C)c1cc(c(O)c(c1)C(C)(C)C)c2cc(cc(c2O)C(C)(C)C)C(C)(C)C,-6.88918749690,0.86213793480,2,G2,410.64200,7.95480,130.00760,30,2,2,2,1,166,2,0,0,2,40.46,183.91603866030,3.02712103530,857.55066361405
A-2317,1-[(E)-2-(2-methoxyphenyl)diazen-1-yl]naphthalen-2-ol,"InChI=1S/C17H14N2O2/c1-21-16-9-5-4-8-14(16)18-19-17-13-7-3-2-6-12(13)10-11-15(17)20/h2-11,18H,1H3/b19-17-",BBBYRJLYBLPEBL-ZPHPHTNESA-N,COc1ccccc1N\N=C2/C(=O)C=Cc3ccccc23,-8.92601643190,0.00000000000,1,G1,278.31100,3.10730,83.63670,21,4,1,4,3,104,2,0,1,3,50.69,122.30816173108,1.95950822532,747.96025722586
A-2318,methyl octadecanoate,"InChI=1S/C19H38O2/c1-3-4-5-6-7-8-9-10-11-12-13-14-15-16-17-18-19(20)21-2/h3-18H2,1-2H3",HPEUJPJOZXNMSJ-UHFFFAOYSA-N,CCCCCCCCCCCCCCCCCC(=O)OC,-8.99783908460,0.00000000000,1,G1,298.51100,6.42090,91.56200,21,2,0,2,16,126,0,0,0,0,26.30,132.58327641652,2.97751359002,213.61189310155
A-2319,"1,2-Benzenedicarboxylic acid, di-C9-11-branched alkyl esters, C10-rich","InChI=1S/C28H46O4/c1-23(2)17-11-7-5-9-15-21-31-27(29)25-19-13-14-20-26(25)28(30)32-22-16-10-6-8-12-18-24(3)4/h13-14,19-20,23-24H,5-12,15-18,21-22H2,1-4H3",ZVFDTKUVRCTHQE-UHFFFAOYSA-N,CC(C)CCCCCCCOC(=O)c1ccccc1C(=O)OCCCCCCCC(C)C,-9.41953980780,0.00000000000,1,G1,446.67200,7.99340,132.08700,32,4,0,4,18,182,1,0,0,1,52.60,196.01026429532,2.26477391388,581.07447287308
A-2320,divanadium pentaoxide,InChI=1S/5O.2V,GNTDGMZSJNCJKK-UHFFFAOYSA-N,O=[V](=O)O[V](=O)=O,-2.30361412720,0.00000000000,1,G1,181.87900,-0.54860,3.83100,7,5,0,7,2,40,0,0,0,0,77.51,48.38095382268,3.77328486085,134.51917573667
A-2321,"Propylidynetrimethanol, ethoxylated, esters with acrylic acid","InChI=1S/C21H32O9/c1-5-18(22)28-12-9-25-15-21(8-4,16-26-10-13-29-19(23)6-2)17-27-11-14-30-20(24)7-3/h5-7H,1-3,8-17H2,4H3",MTPIZGPBYCHTGQ-UHFFFAOYSA-N,CCC(COCCOC(=O)C=C)(COCCOC(=O)C=C)COCCOC(=O)C=C,-2.68744585600,0.91244732695,2,G2,428.47800,1.62020,108.64900,30,9,0,9,19,170,0,0,0,0,106.59,177.13512189638,4.51529845165,482.60209166560
A-2322,4-[(4-hydroxyphenyl)(pyridin-2-yl)methyl]phenol,"InChI=1S/C18H15NO2/c20-15-8-4-13(5-9-15)18(17-3-1-2-12-19-17)14-6-10-16(21)11-7-14/h1-12,18,20-21H",LJROKJGQSPMTKB-UHFFFAOYSA-N,Oc1ccc(cc1)C(c2ccc(O)cc2)c3ccccn3,-4.52390779720,0.00000000000,1,G1,277.32300,3.67300,81.39560,21,3,2,3,3,104,3,0,0,3,53.35,122.71864913136,2.10614863001,660.96685145566
A-2324,oxygen(-2) anion; vanadium; pentahydroxide; pentaphosphate,"InChI=1S/5H3O4P.5H2O.5O.6V/c5*1-5(2,3)4;;;;;;;;;;;;;;;;/h5*(H3,1,2,3,4);5*1H2;;;;;;;;;;;/q;;;;;;;;;;5*-2;;;;;;/p-20",DZHUTCDIQDURCC-UHFFFAOYSA-A,[OH-].[OH-].[OH-].[OH-].[OH-].[O--].[O--].[O--].[O--].[O--].[V].[V].[V].[V].[V].[V].[O-][P]([O-])([O-])=O.[O-][P]([O-])([O-])=O.[O-][P]([O-])([O-])=O.[O-][P]([O-])([O-])=O.[O-][P]([O-])([O-])=O,-1.35036378050,0.00000000000,1,G1,945.53200,-15.61600,51.14400,41,25,0,41,0,270,0,0,0,0,723.75,298.91558643378,-0.00000000585,392.29940054297
A-2326,disilver(1+) carbonate,"InChI=1S/CH2O3.Ag/c2-1(3)4;/h(H2,2,3,4);",LKZMBDSASOBTPN-UHFFFAOYSA-N,[Ag].OC(O)=O,-3.45202167860,0.00000000000,1,G1,169.89200,0.21990,10.65360,5,1,2,4,0,35,0,0,0,0,57.53,44.12264348556,0.00000000000,29.87430298093
A-2329,potassium dodecyl hydrogen phosphate,"InChI=1S/C12H27O4P.K/c1-2-3-4-5-6-7-8-9-10-11-12-16-17(13,14)15;/h2-12H2,1H3,(H2,13,14,15);/q;+1/p-1",MJHORFXTDAGQEU-UHFFFAOYSA-M,[K+].CCCCCCCCCCCCO[P](O)([O-])=O,-3.78448605740,0.00000000000,1,G1,304.40800,0.38860,67.62130,18,3,1,6,12,104,0,0,0,0,69.59,153.92780238993,0.00000000000,208.25409123735
A-2331,aluminium(3+) ion trifluoride,InChI=1S/Al.3FH/h;3*1H/q+3;;;/p-3,KLZUFWVZNOTSEM-UHFFFAOYSA-K,[F-].[F-].[F-].[Al+3],-4.19987931460,0.00000000000,1,G1,83.97600,-9.36880,5.75400,4,0,0,4,0,24,0,0,0,0,0.00,32.42797964509,0.00000000000,3.24511249784
A-2334,2-(4-phenylbenzoyl)benzoic acid,"InChI=1S/C20H14O3/c21-19(17-8-4-5-9-18(17)20(22)23)16-12-10-15(11-13-16)14-6-2-1-3-7-14/h1-13H,(H,22,23)",NBYNVBRXIUUSIG-UHFFFAOYSA-N,OC(=O)c1ccccc1C(=O)c2ccc(cc2)c3ccccc3,-4.82823346660,0.00000000000,1,G1,302.32900,4.28280,88.71180,23,2,1,3,4,112,3,0,0,3,54.37,133.39275371270,1.94042492963,849.56996807922
A-2335,"1,3,5,7-tetranitro-1,3,5,7-tetrazocane",InChI=1S/C4H8N8O8/c13-9(14)5-1-6(10(15)16)3-8(12(19)20)4-7(2-5)11(17)18/h1-4H2,UZGLIIJVICEWHF-UHFFFAOYSA-N,[O-][N+](=O)N1CN(CN(CN(C1)[N+]([O-])=O)[N+]([O-])=O)[N+]([O-])=O,-4.82511680950,0.08061109192,3,G5,296.15600,-2.19520,54.80160,20,8,0,16,4,112,0,1,1,1,185.52,108.36002786924,3.01898160130,352.19280948874
A-2336,"1-[(1E,5Z,9Z)-2,5,10-trimethylcyclododeca-1,5,9-trien-1-yl]ethan-1-one; 1-[(1R)-2,5,10-trimethylcyclododeca-2,5,9-trien-1-yl]ethan-1-one; 1-[(1R)-4,9-dimethyl-12-methylidenecyclododeca-4,8-dien-1-yl]ethan-1-one; 1-[(1S)-2,5,10-trimethylcyclododeca-2,5,9-trien-1-yl]ethan-1-one; 1-[(1S)-4,9-dimethyl-12-methylidenecyclododeca-4,8-dien-1-yl]ethan-1-one","InChI=1S/5C17H26O/c5*1-13-7-5-6-8-14(2)10-12-17(16(4)18)15(3)11-9-13/h7-8H,5-6,9-12H2,1-4H3;2*7-8,11,17H,5-6,9-10,12H2,1-4H3;2*7-8,17H,3,5-6,9-12H2,1-2,4H3/b13-7-,14-8-,17-15+;;;;/t;4*17-/m.1010/s1",IBZATQUGDOLKJX-GPRJLHHYSA-N,CC(=O)[C@H]1CCC(=CCCC=C(C)CCC1=C)C.CC(=O)[C@@H]2CCC(=CCCC=C(C)CCC2=C)C.CC(=O)[C@H]3CCC(=CCCC=C(C)CC=C3C)C.CC(=O)[C@@H]4CCC(=CCCC=C(C)CC=C4C)C.CC/5=C/CC\C=C(C)/CC/C(=C(/C)CC5)C(C)=O,-5.44912602180,0.00000000000,1,G1,1231.97000,25.11710,392.70500,90,5,0,5,5,500,0,0,5,5,85.35,552.85212250107,0.00000056250,2616.38654497909
A-2337,2-[(E)-2-(1-cyano-1-methylpropyl)diazen-1-yl]-2-methylbutanenitrile,"InChI=1S/C10H16N4/c1-5-9(3,7-11)13-14-10(4,6-2)8-12/h5-6H2,1-4H3",AVTLBBWTUPQRAY-UHFFFAOYSA-N,CCC(C)(N=NC(C)(CC)C#N)C#N,-2.69619152610,0.00000000000,1,G1,192.26600,2.82316,53.47400,14,4,0,4,4,76,0,0,0,0,72.30,85.25566726483,4.76162631938,266.22430919527
A-2338,(2S)-2-aminopentanedioic acid; 2-(bis(2-hydroxyethyl)amino)ethanol,"InChI=1S/C6H15NO3.C5H9NO4/c8-4-1-7(2-5-9)3-6-10;6-3(5(9)10)1-2-4(7)8/h8-10H,1-6H2;3H,1-2,6H2,(H,7,8)(H,9,10)/t;3-/m.0/s1",TUBPSFQENHCYBW-HVDRVSQOSA-N,N[C@@H](CCC(O)=O)C(O)=O.OCCN(CCO)CCO,0.11143780900,0.00000000000,1,G1,296.32000,-2.47160,70.17840,20,7,6,9,10,120,0,0,0,0,164.55,116.78844065361,0.00000000000,248.89153247518
A-2342,"4-(2,3,4-trihydroxybenzoyl)phenyl 5-oxo-6-[(1E)-tetraaza-1,3-dien-1-yl]-5,8-dihydronaphthalene-1-sulfonate","InChI=1S/C23H16N4O8S/c24-26-27-25-17-10-8-14-15(21(17)30)2-1-3-19(14)36(33,34)35-13-6-4-12(5-7-13)20(29)16-9-11-18(28)23(32)22(16)31/h1-7,9-11,24,28,31-32H,8H2",WVRFNJXNBZHDGZ-UHFFFAOYSA-N,Oc1ccc(c(O)c1O)C(=O)c2ccc(O[S](=O)(=O)c3cccc4C(=O)C(=CCc34)N=NN=N)cc2,-5.10529073050,0.00000000000,1,G1,508.46800,3.82297,121.68790,36,10,4,13,7,182,3,0,1,4,199.13,202.98228108454,1.58772435979,1578.33706936217
A-2345,"2-chlorobuta-1,3-diene","InChI=1S/C4H5Cl/c1-3-4(2)5/h3H,1-2H2",YACLQRRMGMJLJV-UHFFFAOYSA-N,ClC(=C)C=C,-2.55092545510,0.00000000000,1,G1,88.53700,1.92490,25.19000,5,0,0,1,1,28,0,0,0,0,0.00,36.75813753353,3.20480541789,54.66829050040
A-2346,(ethenesulfonyl)methanesulfonylethene,"InChI=1S/C5H8O4S2/c1-3-10(6,7)5-11(8,9)4-2/h3-4H,1-2,5H2",IJHIIHORMWQZRQ-UHFFFAOYSA-N,C=C[S](=O)(=O)C[S](=O)(=O)C=C,-3.91989544950,0.00000000000,1,G1,196.24900,0.06050,43.10060,11,4,0,6,4,64,0,0,0,0,68.28,66.07061018462,4.81020861685,309.94365638712
A-2347,tetrafluoromethane,"InChI=1S/CF4/c2-1(3,4)5",TXEYQDLBPFQVAA-UHFFFAOYSA-N,FC(F)(F)F,-3.67033962810,0.00000000000,1,G1,88.00300,1.47570,7.16300,5,0,0,4,0,32,0,0,0,0,0.00,25.40139263953,3.02371578407,19.11941547876
A-2348,4-(2-phenylpropan-2-yl)phenol,"InChI=1S/C15H16O/c1-15(2,12-6-4-3-5-7-12)13-8-10-14(16)11-9-13/h3-11,16H,1-2H3",QBDSZLJBMIMQRS-UHFFFAOYSA-N,CC(C)(c1ccccc1)c2ccc(O)cc2,-4.09648470720,0.00000000000,1,G1,212.29200,3.71810,66.67680,16,1,1,1,2,82,2,0,0,2,20.23,96.37755742095,2.42570591118,454.55344170024
A-2350,"4,6-dichloro-5-nitro-2-(propylsulfanyl)pyrimidine","InChI=1S/C7H7Cl2N3O2S/c1-2-3-15-7-10-5(8)4(12(13)14)6(9)11-7/h2-3H2,1H3",DDEDQHVHVPJFAC-UHFFFAOYSA-N,CCCSc1nc(Cl)c(c(Cl)n1)[N+]([O-])=O,-4.38694462440,0.00000000000,1,G1,268.12500,3.19370,59.72140,15,5,0,8,4,82,1,0,0,1,68.92,100.34814362621,3.02551541672,365.49320116829
A-2351,"disodium 2-(2,4,5,7-tetrabromo-6-oxido-3-oxo-3H-xanthen-9-yl)benzoate","InChI=1S/C20H8Br4O5.2Na/c21-11-5-9-13(7-3-1-2-4-8(7)20(27)28)10-6-12(22)17(26)15(24)19(10)29-18(9)14(23)16(11)25;;/h1-6,25H,(H,27,28);;/q;2*+1/p-2",SEACYXSIPDVVMV-UHFFFAOYSA-L,[Na+].[Na+].[O-]C(=O)c1ccccc1C2=C3C=C(Br)C(=O)C(=C3Oc4c(Br)c([O-])c(Br)cc24)Br,-0.84001759480,0.00000000000,1,G1,691.85900,-0.94010,119.11850,31,5,0,11,2,146,2,0,2,4,93.40,253.58454125437,0.00000170667,1370.39324179503
A-2352,methyl methanesulfonate,"InChI=1S/C2H6O3S/c1-5-6(2,3)4/h1-2H3",MBABOKRGFJTBAE-UHFFFAOYSA-N,CO[S](C)(=O)=O,-0.04192141280,0.15051499780,2,G3,110.13400,-0.40760,21.85280,6,3,0,4,1,38,0,0,0,0,43.37,37.05214062958,3.85062163898,110.75488750216
A-2355,"2-{3-[(8E)-pentadec-8-en-1-yl]phenoxymethyl}oxirane; 2-{3-[(8E,11E)-pentadeca-8,11,14-trien-1-yl]phenoxymethyl}oxirane; 2-{3-[(8E,11E)-pentadeca-8,11-dien-1-yl]phenoxymethyl}oxirane","InChI=1S/C24H38O2.C24H36O2.C24H34O2/c3*1-2-3-4-5-6-7-8-9-10-11-12-13-14-16-22-17-15-18-23(19-22)25-20-24-21-26-24/h7-8,15,17-19,24H,2-6,9-14,16,20-21H2,1H3;4-5,7-8,15,17-19,24H,2-3,6,9-14,16,20-21H2,1H3;2,4-5,7-8,15,17-19,24H,1,3,6,9-14,16,20-21H2/b8-7+;2*5-4+,8-7+",OUKSICCLOBOVAZ-XSBYHUFWSA-N,CCCCCC/C=C/CCCCCCCc1cccc(OCC2CO2)c1.CCC/C=C/C/C=C/CCCCCCCc3cccc(OCC4CO4)c3.C=CC/C=C/C/C=C/CCCCCCCc5cccc(OCC6CO6)c5,-6.07985168890,0.00000000000,1,G1,1069.65000,19.94970,332.66400,78,6,0,6,46,432,3,3,3,6,65.28,476.79028773945,0.00000025235,2034.64277317583
A-2356,N-phenylaniline; formaldehyde; propan-2-one,"InChI=1S/C12H11N.C3H6O.CH2O/c1-3-7-11(8-4-1)13-12-9-5-2-6-10-12;1-3(2)4;1-2/h1-10,13H;1-2H3;1H2",AXEXTEASNRDWCD-UHFFFAOYSA-N,CC(C)=O.C=O.N(c1ccccc1)c2ccccc2,-5.96958640100,0.00000000000,1,G1,257.33300,3.84060,79.64270,19,3,1,3,2,100,2,0,0,2,46.17,113.83283447390,0.00000046659,413.18985371700
A-2357,"2,2,4,4,6,12,15-heptamethyl-6-[(trimethylsilyl)oxy]-3,5,10,13,16-pentaoxa-2,4,6-trisilaheptadecane","InChI=1S/C19H48O6Si4/c1-18(20-3)17-22-19(2)16-21-14-13-15-29(12,24-27(7,8)9)25-28(10,11)23-26(4,5)6/h18-19H,13-17H2,1-12H3",GNXVOWXPZHCCTP-UHFFFAOYSA-N,COC(C)COC(C)COCCC[Si](C)(O[Si](C)(C)C)O[Si](C)(C)O[Si](C)(C)C,-6.28773993930,0.00000000000,1,G1,484.93100,5.32650,131.17500,29,6,0,10,16,176,0,0,0,0,55.38,184.25340061897,4.60861141581,452.96076546897
A-2359,"ethyl 3,5-dichloro-4-{[(hexadecyloxy)carbonyl]oxy}benzoate","InChI=1S/C26H40Cl2O5/c1-3-5-6-7-8-9-10-11-12-13-14-15-16-17-18-32-26(30)33-24-22(27)19-21(20-23(24)28)25(29)31-4-2/h19-20H,3-18H2,1-2H3",DFMGMJBWBQNZNK-UHFFFAOYSA-N,CCCCCCCCCCCCCCCCOC(=O)Oc1c(Cl)cc(cc1Cl)C(=O)OCC,-7.13380378860,0.00000000000,1,G1,503.50700,9.16680,134.70650,33,5,0,7,18,188,1,0,0,1,61.83,209.00045774980,2.07812033081,670.25497085936
A-2361,copper(2+) ion bis((9Z)-octadec-9-enoate),"InChI=1S/2C18H34O2.Cu/c2*1-2-3-4-5-6-7-8-9-10-11-12-13-14-15-16-17-18(19)20;/h2*9-10H,2-8,11-17H2,1H3,(H,19,20);/q;;+2/p-2/b2*10-9-;",SVOAENZIOKPANY-CVBJKYQLSA-L,[Cu++].CCCCCCCC\C=C/CCCCCCCC([O-])=O.CCCCCCCC\C=C/CCCCCCCC([O-])=O,-11.99893786190,0.00000000000,1,G1,626.46600,9.54510,168.91800,41,4,0,5,30,245,0,0,0,0,80.26,265.64598209757,-0.00000068762,523.92795111489
A-2362,"(2S,4S)-4-cyclohexylpyrrolidine-2-carboxylic acid hydrochloride","InChI=1S/C11H19NO2.ClH/c13-11(14)10-6-9(7-12-10)8-4-2-1-3-5-8;/h8-10,12H,1-7H2,(H,13,14);1H/t9-,10+;/m1./s1",BHGFUQJUTOVQOS-UXQCFNEQSA-N,Cl.OC(=O)[C@@H]1C[C@H](CN1)C2CCCCC2,0.63126838400,0.00000000000,1,G1,233.73900,2.05120,61.35650,15,2,2,4,2,88,0,2,2,2,49.33,97.03572115313,0.00000112500,216.63346110774
A-2363,2-azabicyclo[2.2.1]hept-5-en-3-one,"InChI=1S/C6H7NO/c8-6-4-1-2-5(3-4)7-6/h1-2,4-5H,3H2,(H,7,8)",DDUFYKNOXPZZIW-UHFFFAOYSA-N,O=C1NC2CC1C=C2,0.93616080790,0.00000000000,1,G1,109.12800,0.06090,29.17770,8,1,1,2,0,42,0,1,2,2,29.10,47.57408054422,2.34883876343,161.91147050653
A-2367,cyclohexylbenzene,"InChI=1S/C12H16/c1-3-7-11(8-4-1)12-9-5-2-6-10-12/h1,3-4,7-8,12H,2,5-6,9-10H2",IGARGHRYKHJQSM-UHFFFAOYSA-N,C1CCC(CC1)c2ccccc2,-4.34150227830,0.00000000000,1,G1,160.26000,3.73430,52.26800,12,0,0,0,1,64,1,1,1,2,0.00,74.61522465235,2.08251008694,219.05344312420
A-2371,"dipotassium disodium 2,4-diamino-5-(2-{2-sulfonato-4-[2-(sulfonatooxy)ethanesulfonyl]phenyl}diazen-1-yl)-3-(2-{4-[2-(sulfonatooxy)ethanesulfonyl]phenyl}diazen-1-yl)benzene-1-sulfonate","InChI=1S/C22H24N6O18S6.2K.2Na/c23-20-17(27-26-16-6-5-15(11-18(16)49(33,34)35)48(31,32)10-8-46-52(42,43)44)12-19(50(36,37)38)21(24)22(20)28-25-13-1-3-14(4-2-13)47(29,30)9-7-45-51(39,40)41;;;;/h1-6,11-12H,7-10,23-24H2,(H,33,34,35)(H,36,37,38)(H,39,40,41)(H,42,43,44);;;;/q;4*+1/p-4",WHNCPPZRBQNNEY-UHFFFAOYSA-J,[Na+].[Na+].[K+].[K+].Nc1c(cc(c(N)c1N=Nc2ccc(cc2)[S](=O)(=O)CCO[S]([O-])(=O)=O)[S]([O-])(=O)=O)N=Nc3ccc(cc3[S]([O-])(=O)=O)[S](=O)(=O)CCO[S]([O-])(=O)=O,-0.28914462130,0.00000000000,1,G1,973.00400,-11.99300,167.83320,56,24,2,34,16,286,3,0,0,3,417.02,449.66106472323,0.00000000000,2635.62267628171
A-2372,"sodium 5-butyl-1H-1,2,3-benzotriazol-1-ide","InChI=1S/C10H12N3.Na/c1-2-3-4-8-5-6-9-10(7-8)12-13-11-9;/h5-7H,2-4H2,1H3;/q-1;+1",GNLXYXCOPZDOPO-UHFFFAOYSA-N,[Na+].CCCCc1ccc2[n-]nnc2c1,0.40402565620,0.00000000000,1,G1,197.21700,-1.06640,51.47000,14,2,0,4,3,68,2,0,0,2,39.88,105.57159925125,0.00000098000,396.92137035697
A-2377,"4,7,7-trimethylbicyclo[3.1.1]hept-3-ene","InChI=1S/C10H16/c1-7-4-5-8-6-9(7)10(8,2)3/h4,8-9H,5-6H2,1-3H3",GRWFGVWFFZKLTI-UHFFFAOYSA-N,CC1=CCC2CC1C2(C)C,-3.77257042350,0.69827243215,10,G4,136.23800,2.99870,43.75200,10,0,0,0,0,56,0,1,3,3,0.00,63.32246471816,2.29662657972,186.21499122004