ID,Name,InChI,InChIKey,SMILES,Solubility,SD,Ocurrences,Group,MolWt,MolLogP,MolMR,HeavyAtomCount,NumHAcceptors,NumHDonors,NumHeteroatoms,NumRotatableBonds,NumValenceElectrons,NumAromaticRings,NumSaturatedRings,NumAliphaticRings,RingCount,TPSA,LabuteASA,BalabanJ,BertzCT
A-3506,5-oxo-DL-proline,"InChI=1S/C5H7NO3/c7-4-2-1-3(6-4)5(8)9/h3H,1-2H2,(H,6,7)(H,8,9)",ODHCTXKNWHHXJC-UHFFFAOYSA-N,OC(=O)C1CCC(=O)N1,-0.40425891720,0.48562945860,2,G3,129.11500,-0.65040,28.80050,9,2,2,4,1,50,0,1,1,1,66.40,51.86032846778,2.48089652702,154.28209708830
A-3508,butyraldehyde,"InChI=1S/C4H8O/c1-2-3-4-5/h4H,2-3H2,1H3",ZTQSAGDEMFDKMZ-UHFFFAOYSA-N,CCCC=O,-0.15900742280,0.07615371140,2,G3,72.10700,0.98540,20.97200,5,1,0,1,2,30,0,0,0,0,17.07,31.99559947106,2.40171522262,24.82892142331
A-3512,thiolane,InChI=1S/C4H8S/c1-2-4-5-3-1/h1-4H2,RAOIDOHSFRTOEL-UHFFFAOYSA-N,C1CCSC1,-1.18191747480,0.00000000000,1,G1,88.17500,1.51340,26.55900,5,1,0,1,0,30,0,1,1,1,0.00,36.95135624286,2.08333333333,15.21928094887
A-3514,phenyl acetate,"InChI=1S/C8H8O2/c1-7(9)10-8-5-3-2-4-6-8/h2-6H,1H3",IPBVNPXQWQGGJP-UHFFFAOYSA-N,CC(=O)Oc1ccccc1,-1.37359516230,0.00000000000,1,G1,136.15000,1.61190,37.75100,10,2,0,2,1,52,1,0,0,1,26.30,59.43635467784,2.67424160230,215.95901745055
A-3515,chloroethane,"InChI=1S/C2H5Cl/c1-2-3/h2H2,1H3",HRYZWHHZPQKTII-UHFFFAOYSA-N,CCCl,-1.05074880920,0.00000000000,1,G1,64.51500,1.24510,16.39400,3,0,0,1,0,20,0,0,0,0,0.00,25.40745936911,1.63299316186,2.75488750216
A-3516,"4,6-dichloropyrimidine",InChI=1S/C4H2Cl2N2/c5-3-1-4(6)8-2-7-3/h1-2H,XJPZKYIHCLDXST-UHFFFAOYSA-N,Clc1cc(Cl)ncn1,-1.41725311430,0.00000000000,1,G1,148.98000,1.78340,32.05200,8,2,0,4,0,42,1,0,0,1,25.78,56.47723153515,3.07766043797,171.89811391900
A-3517,"trisodium 4-amino-5-hydroxy-3-[(E)-2-{4-[(E)-2-[2-oxo-1-(phenylcarbamoyl)propyl]diazen-1-yl]phenyl}diazen-1-yl]-6-[(E)-2-(4-sulfonatonaphthalen-1-yl)diazen-1-yl]naphthalene-2,7-disulfonate","InChI=1S/C36H28N8O12S3.3Na/c1-19(45)32(36(47)38-21-7-3-2-4-8-21)42-39-22-11-13-23(14-12-22)40-43-33-28(58(51,52)53)17-20-18-29(59(54,55)56)34(35(46)30(20)31(33)37)44-41-26-15-16-27(57(48,49)50)25-10-6-5-9-24(25)26;;;/h2-18,32,41H,37H2,1H3,(H,38,47)(H,48,49,50)(H,51,52,53)(H,54,55,56);;;/q;3*+1/p-3/b42-39?,43-40?,44-34+;;;",ZZXARQYSWIVLGM-ICCBSFAUSA-K,[Na+].[Na+].[Na+].CC(=O)C(N=Nc1ccc(cc1)N=Nc2c(N)c3c(cc2[S]([O-])(=O)=O)C=C(\C(=N/Nc4ccc(c5ccccc45)[S]([O-])(=O)=O)C3=O)[S]([O-])(=O)=O)C(=O)Nc6ccccc6,-2.21802831840,0.00000000000,1,G1,926.81100,-4.11190,208.46590,62,19,3,26,12,302,5,0,1,6,334.69,419.31775545657,0.00000341333,3061.43826768439
A-3518,"2,4-dimethylaniline","InChI=1S/C8H11N/c1-6-3-4-8(9)7(2)5-6/h3-5H,9H2,1-2H3",CZZZABOKJQXEBO-UHFFFAOYSA-N,Cc1ccc(N)c(C)c1,-1.33525367270,0.00000000000,1,G1,121.18300,1.88564,40.32840,9,1,1,1,0,48,1,0,0,1,26.02,55.50117804530,3.17167803044,215.80766205434
A-3519,2-chloroaniline,"InChI=1S/C6H6ClN/c7-5-3-1-2-4-6(5)8/h1-4H,8H2",AKCRQHGQIJBRMN-UHFFFAOYSA-N,Nc1ccccc1Cl,-1.35757414580,0.11641806752,4,G5,127.57400,1.92220,35.86440,8,1,1,2,0,42,1,0,0,1,26.02,53.07456004339,3.13486151135,164.63833891467
A-3521,phenyl diamidophosphate,"InChI=1S/C6H9N2O2P/c7-11(8,9)10-6-4-2-1-3-5-6/h1-5H,(H4,7,8,9)",AYRRNFHDJUXLEQ-UHFFFAOYSA-N,N[P](N)(=O)Oc1ccccc1,-1.48765340310,0.00000000000,1,G1,172.12400,1.09090,43.05130,11,2,2,5,2,60,1,0,0,1,78.34,64.71341865277,2.73666146707,269.17058906925
A-3523,"sodium 2-{[4-(cyclohexylamino)-9,10-dioxo-9,10-dihydroanthracen-1-yl]amino}-5-ethoxybenzene-1-sulfonate","InChI=1S/C28H28N2O6S.Na/c1-2-36-22-13-8-11-18-24(22)28(32)26-20(29-17-9-4-3-5-10-17)15-16-21(25(26)27(18)31)30-19-12-6-7-14-23(19)37(33,34)35;/h6-8,11-17,29-30H,2-5,9-10H2,1H3,(H,33,34,35);/q;+1/p-1",OOGKHVOWEZVKKU-UHFFFAOYSA-M,[Na+].CCOc1cccc2C(=O)c3c(Nc4ccccc4[S]([O-])(=O)=O)ccc(NC5CCCCC5)c3C(=O)c12,-1.98783678610,0.00000000000,1,G1,542.58900,2.25700,139.10160,38,8,2,10,7,192,3,1,2,5,124.63,243.76169979810,0.00000336199,1499.17376560163
A-3525,"2-methylpentane-1,5-diamine","InChI=1S/C6H16N2/c1-6(5-8)3-2-4-7/h6H,2-5,7-8H2,1H3",JZUHIOJYCPIVLQ-UHFFFAOYSA-N,CC(CN)CCCN,-1.32724870050,1.10812759155,2,G2,116.20800,0.32010,36.50680,8,2,2,2,4,50,0,0,0,0,52.04,51.24374299384,2.86206559831,45.79319390448
A-3526,"6-amino-1,3-dimethyl-1,2,3,4-tetrahydropyrimidine-2,4-dione","InChI=1S/C6H9N3O2/c1-8-4(7)3-5(10)9(2)6(8)11/h3H,7H2,1-2H3",VFGRNTYELNYSKJ-UHFFFAOYSA-N,CN1C(=CC(=O)N(C)C1=O)N,-1.45357873110,0.00000000000,1,G1,155.15700,-1.33380,41.33640,11,5,1,5,0,60,1,0,0,1,70.02,62.68346118047,3.73574617478,387.79436104604
A-3527,6-pent-3-en-1-yltetrahydro-2H-pyran-2-one,"InChI=1S/C10H16O2/c1-2-3-4-6-9-7-5-8-10(11)12-9/h2-3,9H,4-8H2,1H3/b3-2+",NBCMACYORPIYNY-NSCUHMNNSA-N,C/C=C/CCC1CCCC(=O)O1,-1.48872629130,0.01461010225,2,G3,168.23600,2.43840,47.77900,12,2,0,2,3,68,0,1,1,1,26.30,73.60336320124,2.17987727290,172.67739285527
A-3528,potassium tetrafluoroboranuide,"InChI=1S/BF4.K/c2-1(3,4)5;/q-1;+1",AKEBROIVCDHVSD-UHFFFAOYSA-N,[K+].F[B-](F)(F)F,-1.36763886930,0.00000000000,1,G1,125.90200,-1.69600,10.18600,6,0,0,6,0,32,0,0,0,0,0.00,74.81422737291,0.00000000000,23.01955000865
A-3530,2-hydroxy-3-phenoxypropyl prop-2-enoate,"InChI=1S/C12H14O4/c1-2-8-15-12(14)11(13)9-16-10-6-4-3-5-7-10/h3-7,9,13H,2,8H2,1H3/b11-9-",FOKZHJCFBNVOAV-LUAWRHEFSA-N,CCCOC(=O)C(/O)=C/Oc1ccccc1,-1.62254635880,0.00000000000,1,G1,222.24000,2.41800,59.03180,16,4,1,4,5,86,1,0,0,1,55.76,94.11429908495,2.47620762048,356.54132668856
A-3532,"2,6-diamino-1,4-dihydropyrimidin-4-one","InChI=1S/C4H6N4O/c5-2-1-3(9)8-4(6)7-2/h1H,(H5,5,6,7,8,9)",SWELIMKTDYHAOY-UHFFFAOYSA-N,NC1=CC(=O)N=C(N)N1,-1.37814659600,0.00000000000,1,G1,126.11900,-1.06570,33.68250,9,4,3,5,0,48,1,0,0,1,97.79,50.71200257546,3.33233462673,242.26529978753
A-3533,3-amino-2-chloro-6-methylphenol,"InChI=1S/C7H8ClNO/c1-4-2-3-5(9)6(8)7(4)10/h2-3,10H,9H2,1H3",XYRDGCCCBJITBH-UHFFFAOYSA-N,Cc1ccc(N)c(Cl)c1O,-1.48155286950,0.00000000000,1,G1,157.60000,1.93622,42.26620,10,2,2,3,0,54,1,0,0,1,46.25,64.23373590998,3.34215380777,233.02817392215
A-3534,Diazobarbituric acid,"InChI=1S/C4H2N4O3/c5-8-1-2(9)6-4(11)7-3(1)10/h(H2,6,7,9,10,11)",HBZLKQCYQCZGAN-UHFFFAOYSA-N,[N-]=[N+]=C1C(=O)NC(=O)NC1=O,-1.47175701910,0.00000000000,1,G1,154.08500,-1.97680,30.30780,11,3,2,7,0,56,0,1,1,1,111.67,59.99480354498,3.01832325998,278.45903154683
A-3536,"oxydipropane-1,2-diyl bisacrylate","InChI=1S/C12H18O5/c1-5-11(13)16-9(3)7-15-8-10(4)17-12(14)6-2/h5-6,9-10H,1-2,7-8H2,3-4H3",RNJVAUBBYGWVBF-UHFFFAOYSA-N,CC(COCC(C)OC(=O)C=C)OC(=O)C=C,-1.66829808830,0.00000000000,1,G1,242.27100,1.23840,62.32100,17,5,0,5,8,96,0,0,0,0,61.83,101.03808811043,3.67983825070,256.62057553556
A-3537,pyridine-4-carboxylic acid,"InChI=1S/C6H5NO2/c8-6(9)5-1-3-7-4-2-5/h1-4H,(H,8,9)",TWBYWOBDOCUKOW-UHFFFAOYSA-N,OC(=O)c1ccncc1,-1.37596709920,0.00000000000,1,G1,123.11100,0.77980,31.19630,9,2,1,3,1,46,1,0,0,1,50.19,51.97174906708,2.98145461404,207.55766205434
A-3538,"1,4-dithiane-2,5-diol","InChI=1S/C4H8O2S2/c5-3-1-7-4(6)2-8-3/h3-6H,1-2H2",YUIOPHXTILULQC-UHFFFAOYSA-N,OC1CSC(O)CS1,-1.46903823220,0.00000000000,1,G1,152.24000,0.10320,36.92960,8,4,2,4,0,48,0,1,1,1,40.46,56.66293377261,2.19237715802,60.43856189775
A-3539,6-chlorohexan-2-one,"InChI=1S/C6H11ClO/c1-6(8)4-2-3-5-7/h2-5H2,1H3",CMDIDTNMHQUVPE-UHFFFAOYSA-N,CC(=O)CCCCCl,-1.41557387570,0.00000000000,1,G1,134.60600,1.98450,35.25200,8,1,0,2,4,48,0,0,0,0,17.07,55.02874992674,2.82235455425,70.92878689342
A-3540,"4-(3-methyl-5-oxo-4,5-dihydro-1H-pyrazol-1-yl)benzenesulfonic acid","InChI=1S/C10H10N2O4S/c1-7-6-10(13)12(11-7)8-2-4-9(5-3-8)17(14,15)16/h2-5H,6H2,1H3,(H,14,15,16)",CWJQQASJVVAXKL-UHFFFAOYSA-N,CC1=NN(C(=O)C1)c2ccc(cc2)[S](O)(=O)=O,-1.69264029740,0.00000000000,1,G1,254.26700,1.04590,61.46860,17,4,1,7,2,90,1,0,1,2,87.04,98.30079070994,2.33888632801,589.23684222829
A-3542,toluenesulphonamide,"InChI=1S/C7H9NO2S/c1-6-4-2-3-5-7(6)11(8,9)10/h2-5H,1H3,(H2,8,9,10)",YCMLQMDWSXFTIF-UHFFFAOYSA-N,Cc1ccccc1[S](N)(=O)=O,-1.52598685310,0.25172509670,2,G3,171.22100,0.64242,42.55220,11,2,1,4,1,60,1,0,0,1,60.16,65.89701182332,3.37219481096,356.45825254566
A-3543,1-(6-methyl-2-oxohexahydropyrimidin-4-yl)urea,"InChI=1S/C6H12N4O2/c1-3-2-4(9-5(7)11)10-6(12)8-3/h3-4H,2H2,1H3,(H3,7,9,11)(H2,8,10,12)",CZAUMIGWDFREBR-UHFFFAOYSA-N,CC1CC(NC(N)=O)NC(=O)N1,-1.53142343190,0.00000000000,1,G1,172.18800,-0.92780,42.25350,12,2,4,6,1,68,0,1,1,1,96.25,69.87065189421,2.43827615281,203.72476622437
A-3544,"2-methylbenzene-1,4-diamine; sulfuric acid","InChI=1S/C7H10N2.H2O4S/c1-5-4-6(8)2-3-7(5)9;1-5(2,3)4/h2-4H,8-9H2,1H3;(H2,1,2,3,4)",KZTWOUOZKZQDMN-UHFFFAOYSA-N,Cc1cc(N)ccc1N.O[S](O)(=O)=O,-1.64134793200,0.00000000000,1,G1,220.25000,0.50662,54.18120,14,4,4,7,0,80,1,0,0,1,126.64,82.11383141974,0.00000029178,394.15086374693
A-3547,3-(trifluoromethyl)aniline,"InChI=1S/C7H6F3N/c8-7(9,10)5-2-1-3-6(11)4-5/h1-4H,11H2",VIUDTWATMPPKEL-UHFFFAOYSA-N,Nc1cccc(c1)C(F)(F)F,-1.50819562140,0.03316372356,4,G5,161.12600,2.28760,35.85640,11,1,1,4,0,60,1,0,0,1,26.02,61.63284213968,3.05990169222,254.10775327613
A-3548,"4,4'-methylenebis(cyclohexylamine)","InChI=1S/C13H26N2/c14-12-5-1-10(2-6-12)9-11-3-7-13(15)8-4-11/h10-13H,1-9,14-15H2",DZIHTWJGPDVSGE-UHFFFAOYSA-N,NC1CCC(CC1)CC2CCC(N)CC2,-1.62400348030,0.21154723066,3,G5,210.36500,2.41150,64.48380,15,2,2,2,2,88,0,2,2,2,52.04,93.78667548756,1.68123485464,156.97497435500
A-3549,"N-(2,5-dimethoxyphenyl)acetamide","InChI=1S/C10H13NO3/c1-7(12)11-9-6-8(13-2)4-5-10(9)14-3/h4-6H,1-3H3,(H,11,12)",HOZRMSVNIKYCMB-UHFFFAOYSA-N,COc1ccc(OC)c(NC(C)=O)c1,-1.59154985480,0.00000000000,1,G1,195.21800,1.66220,53.84970,14,3,1,4,3,76,1,0,0,1,47.56,82.82964631975,3.01341354509,336.13903760612
A-3551,potassium 4-(propan-2-yl)benzene-1-sulfonate,"InChI=1S/C9H12O3S.K/c1-7(2)8-3-5-9(6-4-8)13(10,11)12;/h3-7H,1-2H3,(H,10,11,12);/q;+1/p-1",RVRONQZKSCNZRS-UHFFFAOYSA-M,[K+].CC(C)c1ccc(cc1)[S]([O-])(=O)=O,0.32088721150,0.00000000000,1,G1,238.34900,-1.28190,48.49420,14,3,0,5,2,72,1,0,0,1,57.20,127.07743016809,0.00000169000,381.02302318835
A-3552,ammonium carbamate,"InChI=1S/CH3NO2.H3N.H2O/c2-1(3)4;;/h2H2,(H,3,4);1H3;1H2",SFWLALIEAXEULE-UHFFFAOYSA-N,[NH4+].O.NC([O-])=O,0.71159399770,0.00000000000,1,G1,96.08600,-2.16010,19.18200,6,2,2,5,0,40,0,0,0,0,134.15,34.65140136944,-0.00000004500,31.77443751082
A-3553,sodium 4-(propan-2-yl)benzene-1-sulfonate,"InChI=1S/C9H12O3S.Na/c1-7(2)8-3-5-9(6-4-8)13(10,11)12;/h3-7H,1-2H3,(H,10,11,12);/q;+1/p-1",QEKATQBVVAZOAY-UHFFFAOYSA-M,[Na+].CC(C)c1ccc(cc1)[S]([O-])(=O)=O,0.34602273670,0.00000000000,1,G1,222.24100,-1.28190,48.49420,14,3,0,5,2,72,1,0,0,1,57.20,106.56826509544,0.00000169000,381.02302318835
A-3555,trimethyl-3-[(1-oxo-10-undecenyl)amino]propylammonium methyl sulphate,"InChI=1S/C17H34N2O.CH4O4S/c1-5-6-7-8-9-10-11-12-14-17(20)18-15-13-16-19(2,3)4;1-5-6(2,3)4/h5H,1,6-16H2,2-4H3;1H3,(H,2,3,4)",MQMUSWOUVRONBK-UHFFFAOYSA-N,CO[S]([O-])(=O)=O.C[N+](C)(C)CCCNC(=O)CCCCCCCCC=C,0.09406321290,0.00000000000,1,G1,394.57800,2.59870,104.36530,26,5,1,8,14,156,0,0,0,0,95.53,159.89186964997,0.00000000000,458.69213607132
A-3557,"disodium bicyclo[3.3.1]tetraboroxane-3,7-bis(olate)",InChI=1S/B4O7.2Na.10H2O/c5-1-9-3(7)11-4(8)10-2-6;;;;;;;;;;;;/h;;;10*1H2/q-2;2*+1;;;;;;;;;;,OJPFLODMGUZMKD-UHFFFAOYSA-N,O.O.O.O.O.O.O.O.O.O.[Na+].[Na+].[O-]B(OB=O)OB([O-])OB=O,-0.88464188470,0.00000000000,1,G1,381.37100,-18.58300,63.78200,23,7,0,23,6,136,0,0,0,0,422.95,175.19205472557,-0.00000000758,123.76177455631
A-3558,2-aminopyridin-3-ol,"InChI=1S/C5H6N2O/c6-5-4(8)2-1-3-7-5/h1-3,8H,(H2,6,7)",BMTSZVZQNMNPCT-UHFFFAOYSA-N,Nc1ncccc1O,-0.34610615190,0.00000000000,1,G1,110.11600,0.36940,30.31420,8,3,2,3,0,42,1,0,0,1,59.14,46.78517554965,3.13486151135,166.53847344456
A-3560,1-ethenylazepan-2-one,"InChI=1S/C8H13NO/c1-2-9-7-5-3-4-6-8(9)10/h2H,1,3-7H2",JWYVGKFDLWWQJX-UHFFFAOYSA-N,C=CN1CCCCCC1=O,-0.45078607610,0.00000000000,1,G1,139.19800,1.53250,40.37800,10,1,0,2,1,56,0,1,1,1,20.31,61.51976741314,2.50938712958,142.19301755139
A-3561,3-methyl-4-oxobut-2-en-1-yl acetate,"InChI=1S/C7H10O3/c1-6(5-8)3-4-10-7(2)9/h3,5H,4H2,1-2H3/b6-3+",LPDDKAJRWGPGSI-ZZXKWVIFSA-N,CC(=O)OC\C=C(/C)C=O,-0.46079398180,0.00000000000,1,G1,142.15400,0.69470,36.45400,10,3,0,3,3,56,0,0,0,0,43.37,59.67589011162,3.52356883435,158.23415450316
A-3562,boric acid,InChI=1S/BH3O3/c2-1(3)4/h2-4H,KGBXLFKZBHKPEV-UHFFFAOYSA-N,OB(O)O,-0.09925521520,0.05386989199,3,G5,61.83300,-2.05180,12.41040,4,3,3,4,0,24,0,0,0,0,60.69,23.68451728090,2.32379000772,8.00000000000
A-3563,calcium hydrogen borate,InChI=1S/2BO3.3Ca/c2*2-1(3)4;;;/q2*-3;3*+2,VLCLHFYFMCKBRP-UHFFFAOYSA-N,[Ca++].[Ca++].[Ca++].[O-]B([O-])[O-].[O-]B([O-])[O-],-0.68434170480,0.05386989196,3,G5,237.85200,-9.03800,28.77000,11,6,0,11,0,48,0,0,0,0,138.36,154.34786078756,-0.00000001714,31.29886030285
A-3564,hexapotassium dihydrogen borate hydrogen borate borate,InChI=1S/BH3O3.K/c2-1(3)4;/h2-4H;,AENYAMPVQFAKHY-UHFFFAOYSA-N,[K].OB(O)O,-0.31205947340,0.05386989196,3,G5,100.93100,-2.43260,18.16440,5,3,3,5,0,25,0,0,0,0,60.69,72.60708197626,0.00000000000,11.60964047444
A-3566,"2,2-bis(hydroxymethyl)butanoic acid","InChI=1S/C6H12O4/c1-2-6(3-7,4-8)5(9)10/h7-8H,2-4H2,1H3,(H,9,10)",JVYDLYGCSIHCMR-UHFFFAOYSA-N,CCC(CO)(CO)C(O)=O,0.51680385440,0.00000000000,1,G1,148.15800,-0.54800,34.53140,10,3,3,4,4,60,0,0,0,0,77.76,59.10818495644,4.30561942608,108.65156130631
A-3567,lead(2+) ion dinitrate,InChI=1S/2NO3.Pb/c2*2-1(3)4;/q2*-1;+2,RLJMLMKIBZAXJO-UHFFFAOYSA-N,[Pb++].[O-][N+]([O-])=O.[O-][N+]([O-])=O,0.16653545110,0.00000000000,1,G1,331.20800,-0.85900,26.47680,9,6,0,9,0,50,0,0,0,0,132.40,68.46518758887,-0.00000007200,69.05865002596
A-3569,trisodium 2-({2-[bis(carboxylatomethyl)amino]ethyl}(2-hydroxyethyl)amino)acetate,"InChI=1S/C10H18N2O7.3Na/c13-4-3-11(5-8(14)15)1-2-12(6-9(16)17)7-10(18)19;;;/h13H,1-7H2,(H,14,15)(H,16,17)(H,18,19);;;/q;3*+1/p-3",WHNXAQZPEBNFBC-UHFFFAOYSA-K,[Na+].[Na+].[Na+].OCCN(CCN(CC([O-])=O)CC([O-])=O)CC([O-])=O,0.14442153920,0.00886438350,2,G3,344.20700,-15.15560,54.98680,22,9,1,12,11,110,0,0,0,0,147.10,194.44509757486,-0.00000054000,317.64201394857
A-3577,"disodium 5-({4-[bis(2-hydroxyethyl)amino]-6-(phenylamino)-1,3,5-triazin-2-yl}amino)-2-{2-[4-({4-[bis(2-hydroxyethyl)amino]-6-(phenylamino)-1,3,5-triazin-2-yl}amino)-2-sulfonatophenyl]ethenyl}benzene-1-sulfonate","InChI=1S/C40H44N12O10S2.2Na/c53-21-17-51(18-22-54)39-47-35(41-29-7-3-1-4-8-29)45-37(49-39)43-31-15-13-27(33(25-31)63(57,58)59)11-12-28-14-16-32(26-34(28)64(60,61)62)44-38-46-36(42-30-9-5-2-6-10-30)48-40(50-38)52(19-23-55)20-24-56;;/h1-16,25-26,53-56H,17-24H2,(H,57,58,59)(H,60,61,62)(H2,41,43,45,47,49)(H2,42,44,46,48,50);;/q;2*+1/p-2/b12-11+;;",YJHDFAAFYNRKQE-YHPRVSEPSA-L,[Na+].[Na+].OCCN(CCO)c1nc(Nc2ccccc2)nc(Nc3ccc(\C=C\c4ccc(Nc5nc(Nc6ccccc6)nc(n5)N(CCO)CCO)cc4[S]([O-])(=O)=O)c(c3)[S]([O-])(=O)=O)n1,-1.29966008000,0.00000000000,1,G1,960.96400,-3.40040,236.17640,66,22,8,26,22,336,6,0,0,6,327.26,423.97470249641,0.00000476099,2588.11919368462
A-3578,zinc bis(2-hydroxypropanoate),"InChI=1S/2C3H6O3.Zn/c2*1-2(4)3(5)6;/h2*2,4H,1H3,(H,5,6);/q;;+2/p-2",CANRESZKMUPMAE-UHFFFAOYSA-L,[Zn++].CC(O)C([O-])=O.CC(O)C([O-])=O,-0.70350543050,0.23014728475,2,G3,243.53000,-3.76830,33.37560,13,6,2,7,2,72,0,0,0,0,120.72,87.95310000478,-0.00000014286,137.20346637910
A-3582,3-methylbutanoic acid,"InChI=1S/C5H10O2/c1-4(2)3-5(6)7/h4H,3H2,1-2H3,(H,6,7)",GWYFCOCPABKNJV-UHFFFAOYSA-N,CC(C)CC(O)=O,-0.32792485150,0.03583757425,2,G3,102.13300,1.11710,27.09080,7,1,1,2,2,42,0,0,0,0,37.30,43.15477533766,3.12600665239,66.48040587771
A-3594,"trilithium 2-hydroxypropane-1,2,3-tricarboxylate tetrahydrate","InChI=1S/C6H8O7.3Li.4H2O/c7-3(8)1-6(13,5(11)12)2-4(9)10;;;;;;;/h13H,1-2H2,(H,7,8)(H,9,10)(H,11,12);;;;4*1H2/q;3*+1;;;;/p-3",HXGWMCJZLNWEBC-UHFFFAOYSA-K,[Li+].[Li+].[Li+].O.O.O.O.OC(CC([O-])=O)(CC([O-])=O)C([O-])=O,0.22187647140,0.00000000000,1,G1,281.98200,-17.53940,43.66000,20,7,1,14,5,106,0,0,0,0,266.62,149.04117320018,-0.00000003429,242.54301692958
A-3596,(2S)-3-methyl-2-[pentanoyl-[[4-[2-(2H-tetrazol-5-yl)phenyl]phenyl]methyl]amino]butanoic acid,"InChI=1S/C24H29N5O3/c1-4-5-10-21(30)29(22(16(2)3)24(31)32)15-17-11-13-18(14-12-17)19-8-6-7-9-20(19)23-25-27-28-26-23/h6-9,11-14,16,22H,4-5,10,15H2,1-3H3,(H,31,32)(H,25,26,27,28)/t22-/m0/s1",ACWBQPMHZXGDFX-QFIPXVFZSA-N,CCCCC(=O)N(Cc1ccc(cc1)c2ccccc2c3n[nH]nn3)[C@@H](C(C)C)C(O)=O,-2.73592609390,0.00000000000,1,G1,435.52800,4.16170,121.38650,32,5,2,8,10,168,3,0,0,3,112.07,187.21053148154,1.87056008720,1032.05295223807
A-3599,2-[(2-hydroxyethyl)(phenyl)amino]ethan-1-ol,"InChI=1S/C10H15NO2/c12-8-6-11(7-9-13)10-4-2-1-3-5-10/h1-5,12-13H,6-9H2",OJPDDQSCZGTACX-UHFFFAOYSA-N,OCCN(CCO)c1ccccc1,-0.58338093140,0.07607374177,3,G5,181.23500,0.47760,52.82660,13,3,2,3,5,72,1,0,0,1,43.70,78.23947275168,2.63891662303,219.62617188864
A-3601,ethyl methyl carbonate,"InChI=1S/C4H8O3/c1-3-7-4(5)6-2/h3H2,1-2H3",JBTWLSYIZRCDFO-UHFFFAOYSA-N,CCOC(=O)OC,-0.34445068140,0.00000000000,1,G1,104.10500,0.78930,24.03100,7,3,0,3,1,42,0,0,0,0,35.53,42.22268993008,3.00259052867,59.95524697820
A-3602,magnesium(2+) ion dichloride,InChI=1S/2ClH.Mg/h2*1H;/q;;+2/p-2,TWRXJAOTZQYOKJ-UHFFFAOYSA-L,[Mg++].[Cl-].[Cl-],0.69220782690,0.00000000000,1,G1,95.21100,-6.37280,5.75400,3,0,0,3,0,16,0,0,0,0,0.00,47.94456007310,0.00000000000,2.75488750216
A-3603,"hexane-1,6-diamine; hexanedioic acid","InChI=1S/C6H16N2.C6H10O4/c7-5-3-1-2-4-6-8;7-5(8)3-1-2-4-6(9)10/h1-8H2;1-4H2,(H,7,8)(H,9,10)",UFFRSDWQMJYQNE-UHFFFAOYSA-N,NCCCCCCN.OC(=O)CCCCC(O)=O,0.25136478450,0.00000000000,1,G1,262.35000,1.18020,70.31640,18,4,4,6,10,108,0,0,0,0,126.64,108.35073853823,0.00000000000,188.25409123735
A-3605,vanadium oxide sulphate,"InChI=1S/H2O4S.O.V/c1-5(2,3)4;;/h(H2,1,2,3,4);;/q;;+2/p-2",UUUGYDOQQLOJQA-UHFFFAOYSA-L,[O-][S]([O-])(=O)=O.O=[V++],0.45711861880,0.00000000000,1,G1,163.00400,-1.45930,11.16110,7,5,0,7,0,41,0,0,0,0,97.33,49.50621336894,0.00000000000,102.04184397997
A-3606,lithium(1+) ion perchlorate,"InChI=1S/ClHO4.Li.3H2O/c2-1(3,4)5;;;;/h(H,2,3,4,5);;3*1H2/q;+1;;;/p-1",JAWYRNYHJJDXHX-UHFFFAOYSA-M,[Li+].O.O.O.[O-][Cl](=O)(=O)=O,0.46121886190,0.00000000000,1,G1,160.43500,-10.22610,10.84140,9,4,0,9,0,56,0,0,0,0,186.74,64.75172800037,-0.00000001333,24.38761556290
A-3608,potassium nonafluorobutane-1-sulfonate,"InChI=1S/C4HF9O3S.K/c5-1(6,3(9,10)11)2(7,8)4(12,13)17(14,15)16;/h(H,14,15,16);/q;+1/p-1",LVTHXRLARFLXNR-UHFFFAOYSA-M,[K+].[O-][S](=O)(=O)C(F)(F)C(F)(F)C(F)(F)C(F)(F)F,-0.86451621780,0.03174504579,3,G5,338.18800,-1.03870,30.59320,18,3,0,14,3,104,0,0,0,0,57.20,135.87509670276,0.00000000000,398.52603557775
A-3609,"2-[(E)-2-{4-[ethyl(2-hydroxyethyl)amino]phenyl}diazen-1-yl]-6-methoxy-3-methyl-1,3-benzothiazol-3-ium chloride","InChI=1S/C19H23N4O2S.ClH/c1-4-23(11-12-24)15-7-5-14(6-8-15)20-21-19-22(2)17-10-9-16(25-3)13-18(17)26-19;/h5-10,13,24H,4,11-12H2,1-3H3;1H/q+1;/p-1",XZLJSWJFZGBAQT-UHFFFAOYSA-M,[Cl-].CCN(CCO)c1ccc(cc1)N=Nc2sc3cc(OC)ccc3[n+]2C,-0.94677148180,0.00000000000,1,G1,406.93900,0.97240,105.14380,27,6,1,8,7,144,3,0,0,3,61.30,168.69728103057,0.00000261333,911.96369197233
A-3610,"2-[(E)-2-{4-[ethyl(2-hydroxyethyl)amino]phenyl}diazen-1-yl]-6-methoxy-3-methyl-1,3-benzothiazol-3-ium methyl sulfate","InChI=1S/C19H23N4O2S.CH4O4S/c1-4-23(11-12-24)15-7-5-14(6-8-15)20-21-19-22(2)17-10-9-16(25-3)13-18(17)26-19;1-5-6(2,3)4/h5-10,13,24H,4,11-12H2,1-3H3;1H3,(H,2,3,4)/q+1;/p-1",MHOFGBJTSNWTDT-UHFFFAOYSA-M,CCN(CCO)c1ccc(cc1)N=Nc2sc3cc(OC)ccc3[n+]2C.CO[S]([O-])(=O)=O,-1.02081508720,0.00000000000,1,G1,482.58400,3.06140,121.85000,32,10,1,12,8,174,3,0,0,3,127.73,190.86614616156,0.00000053449,1146.85640916785
A-3611,butyl 2-hydroxyacetate,"InChI=1S/C6H12O3/c1-2-3-4-9-6(8)5-7/h7H,2-5H2,1H3",VFGRALUHHHDIQI-UHFFFAOYSA-N,CCCCOC(=O)CO,-0.45833891220,0.00000000000,1,G1,132.15900,0.32200,32.95280,9,3,1,3,4,54,0,0,0,0,46.53,54.63326268156,2.97306240809,80.37215811651
A-3612,methyl 2-chloroacetate,"InChI=1S/C3H5ClO2/c1-6-3(5)2-4/h2H2,1H3",QABLOFMHHSOFRJ-UHFFFAOYSA-N,COC(=O)CCl,-0.37276796100,0.00000000000,1,G1,108.52400,0.39820,22.73600,6,2,0,3,1,36,0,0,0,0,26.30,41.04746881306,2.98816088213,46.75488750216