ID,Name,InChI,InChIKey,SMILES,Solubility,SD,Ocurrences,Group,MolWt,MolLogP,MolMR,HeavyAtomCount,NumHAcceptors,NumHDonors,NumHeteroatoms,NumRotatableBonds,NumValenceElectrons,NumAromaticRings,NumSaturatedRings,NumAliphaticRings,RingCount,TPSA,LabuteASA,BalabanJ,BertzCT
A-2582,icosan-1-ol,"InChI=1S/C20H42O/c1-2-3-4-5-6-7-8-9-10-11-12-13-14-15-16-17-18-19-20-21/h21H,2-20H2,1H3",BTFJIXJJCSYFAL-UHFFFAOYSA-N,CCCCCCCCCCCCCCCCCCCCO,-5.47502434890,0.00000000000,1,G1,298.55500,7.02040,95.86580,21,1,1,1,18,128,0,0,0,0,20.23,134.46738495356,2.90144398454,149.22134949146
A-2583,manganese(3+) ion ammonium (phosphonatooxy)phosphonate,"InChI=1S/Mn.H3N.H4O7P2/c;;1-8(2,3)7-9(4,5)6/h;1H3;(H2,1,2,3)(H2,4,5,6)/q+3;;/p-3",UHHXUPJJDHEMGX-UHFFFAOYSA-K,[NH4+].[Mn+3].[O-][P]([O-])(=O)O[P]([O-])([O-])=O,-5.39255275060,0.00000000000,1,G1,246.91800,-2.96590,22.28280,11,7,1,11,2,68,0,0,0,0,172.11,72.49538113684,-0.00000032000,156.87959510731
A-2584,octadecan-1-ol,"InChI=1S/C18H38O/c1-2-3-4-5-6-7-8-9-10-11-12-13-14-15-16-17-18-19/h19H,2-18H2,1H3",GLDOVTGHNKAZLK-UHFFFAOYSA-N,CCCCCCCCCCCCCCCCCCO,-5.43216887500,1.47930365740,2,G2,270.50100,6.24020,86.63180,19,1,1,1,16,116,0,0,0,0,20.23,121.73750072477,2.87669664454,128.62570933198
A-2586,propan-2-yl dodecanoate,"InChI=1S/C15H30O2/c1-4-5-6-7-8-9-10-11-12-13-15(16)17-14(2)3/h14H,4-13H2,1-3H3",UJPPXNXOEVDSRW-UHFFFAOYSA-N,CCCCCCCCCCCC(=O)OC(C)C,-5.38453799040,0.00000000000,1,G1,242.40300,4.85890,73.07200,17,2,0,2,11,102,0,0,0,0,26.30,107.12350795893,3.10164393504,175.76063316262
A-2587,tetracosan-1-ol,"InChI=1S/C24H50O/c1-2-3-4-5-6-7-8-9-10-11-12-13-14-15-16-17-18-19-20-21-22-23-24-25/h25H,2-24H2,1H3",TYWMIZZBOVGFOV-UHFFFAOYSA-N,CCCCCCCCCCCCCCCCCCCCCCCCO,-5.54981588330,0.00000000000,1,G1,354.66300,8.58080,114.33380,25,1,1,1,22,152,0,0,0,0,20.23,159.92715341115,2.93925007141,192.14115470568
A-2589,undec-3-ene,"InChI=1S/C11H22/c1-3-5-7-9-11-10-8-6-4-2/h5,7H,3-4,6,8-11H2,1-2H3/b7-5+",SDTYFWAQLSIEBH-FNORWQNLSA-N,CCCCCCC\C=C\CC,-5.18835748210,0.03959062300,2,G3,154.29700,4.31310,52.80700,11,0,0,0,7,66,0,0,0,0,0.00,71.69906913961,2.84525318124,82.03910001731
A-2590,vinyl laurate,"InChI=1S/C14H26O2/c1-3-5-6-7-8-9-10-11-12-13-14(15)16-4-2/h4H,2-3,5-13H2,1H3",GLVVKKSPKXTQRB-UHFFFAOYSA-N,CCCCCCCCCCCC(=O)OC=C,-5.35479968530,0.00000000000,1,G1,226.36000,4.59400,68.13300,16,2,0,2,11,94,0,0,0,0,26.30,100.06896281235,3.03382105690,175.57415488669
A-2591,zinc(2+) ion bis((dibutylcarbamothioyl)sulfanide),"InChI=1S/2C9H19NS2.Zn/c2*1-3-5-7-10(9(11)12)8-6-4-2;/h2*3-8H2,1-2H3,(H,11,12);/q;;+2/p-2",BOXSVZNGTQTENJ-UHFFFAOYSA-L,[Zn++].CCCCN(CCCC)C([S-])=S.CCCCN(CCCC)C([S-])=S,-5.67592308240,0.00000000000,1,G1,474.15800,5.43830,122.70400,25,4,0,7,12,144,0,0,0,0,6.48,191.37978733029,-0.00000037231,271.45119045492
A-2592,"1,4-xylene 4-(methoxycarbonyl)benzoic acid 4-methylbenzoic acid benzoic acid 1,2,4-trimethyl benzene-1,2,4-tricarboxylate 1,2-dimethyl 4-methylbenzene-1,2-dicarboxylate 1,2-dimethyl benzene-1,2-dicarboxylate 1,3-dimethyl benzene-1,3-dicarboxylate 1,4-dimethyl 2-[4-(methoxycarbonyl)phenyl]benzene-1,4-dicarboxylate 1,4-dimethyl benzene-1,4-dicarboxylate 1-[4-(methoxycarbonyl)phenyl]methyl 4-methyl benzene-1,4-dicarboxylate 1-methyl 4-(4-methylphenyl)methyl benzene-1,4-dicarboxylate 2,6-dimethyl 9-oxo-9H-fluorene-2,6-dicarboxylate [4-(methoxycarbonyl)phenyl]methyl 4-methylbenzoate methyl 1-methyl-6-oxo-6H-benzo[c]chromene-4-carboxylate methyl 2-[4-(methoxycarbonyl)phenyl]-4-methylbenzoate methyl 2-[4-(methoxycarbonyl)phenyl]benzoate methyl 3-[4-(methoxycarbonyl)phenyl]benzoate methyl 4-(dimethoxymethyl)benzoate methyl 4-(hydroxymethyl)benzoate methyl 4-[4-(methoxycarbonyl)phenyl]benzoate methyl 4-formylbenzoate methyl 4-methylbenzoate methyl benzoate","InChI=1S/2C18H16O6.C17H12O5.3C17H16O4.C16H12O4.3C16H14O4.C12H12O6.C11H14O4.C11H12O4.3C10H10O4.C9H8O4.C9H10O3.C9H8O3.C9H10O2.2C8H8O2.C8H10.C7H6O2/c1-22-16(19)12-6-4-11(5-7-12)15-10-13(17(20)23-2)8-9-14(15)18(21)24-3;1-22-16(19)13-5-3-12(4-6-13)11-24-18(21)15-9-7-14(8-10-15)17(20)23-2;1-21-16(19)9-4-6-12-13(7-9)11-5-3-10(17(20)22-2)8-14(11)15(12)18;1-11-4-9-14(17(19)21-3)15(10-11)12-5-7-13(8-6-12)16(18)20-2;1-12-3-7-15(8-4-12)17(19)21-11-13-5-9-14(10-6-13)16(18)20-2;1-12-3-5-13(6-4-12)11-21-17(19)15-9-7-14(8-10-15)16(18)20-2;1-9-7-8-12(15(17)19-2)14-13(9)10-5-3-4-6-11(10)16(18)20-14;1-19-15(17)13-7-3-11(4-8-13)12-5-9-14(10-6-12)16(18)20-2;1-19-15(17)12-8-6-11(7-9-12)13-4-3-5-14(10-13)16(18)20-2;1-19-15(17)12-9-7-11(8-10-12)13-5-3-4-6-14(13)16(18)20-2;1-16-10(13)7-4-5-8(11(14)17-2)9(6-7)12(15)18-3;1-13-10(12)8-4-6-9(7-5-8)11(14-2)15-3;1-7-4-5-8(10(12)14-2)9(6-7)11(13)15-3;1-13-9(11)7-3-5-8(6-4-7)10(12)14-2;1-13-9(11)7-4-3-5-8(6-7)10(12)14-2;1-13-9(11)7-5-3-4-6-8(7)10(12)14-2;1-13-9(12)7-4-2-6(3-5-7)8(10)11;2*1-12-9(11)8-4-2-7(6-10)3-5-8;1-7-3-5-8(6-4-7)9(10)11-2;1-6-2-4-7(5-3-6)8(9)10;1-10-8(9)7-5-3-2-4-6-7;1-7-3-5-8(2)6-4-7;8-7(9)6-4-2-1-3-5-6/h4-10H,1-3H3;3-10H,11H2,1-2H3;3-8H,1-2H3;4-10H,1-3H3;2*3-10H,11H2,1-2H3;3-8H,1-2H3;3*3-10H,1-2H3;4-6H,1-3H3;4-7,11H,1-3H3;4-6H,1-3H3;3*3-6H,1-2H3;2-5H,1H3,(H,10,11);2-5,10H,6H2,1H3;2-6H,1H3;3-6H,1-2H3;2-5H,1H3,(H,9,10);2-6H,1H3;3-6H,1-2H3;1-5H,(H,8,9)",DERNUBFICIQBEP-UHFFFAOYSA-N,COC(OC)c1ccc(cc1)C(=O)OC.COC(=O)c2ccccc2.COC(=O)c3ccc(C)cc3.COC(=O)c4ccc(CO)cc4.COC(=O)c5ccc(COC(=O)c6ccc(C)cc6)cc5.COC(=O)c7ccc(COC(=O)c8ccc(cc8)C(=O)OC)cc7.COC(=O)c9ccc(C=O)cc9.COC(=O)c%10ccc(cc%10)C(O)=O.COC(=O)c%11ccc(cc%11)C(=O)OC.COC(=O)c%12ccc(cc%12)C(=O)OCc%13ccc(C)cc%13.COC(=O)c%14ccc(cc%14)c%15ccc(cc%15)C(=O)OC.COC(=O)c%16ccc(cc%16)c%17cccc(c%17)C(=O)OC.COC(=O)c%18ccc(cc%18)c%19ccccc%19C(=O)OC.COC(=O)c%20ccc(cc%20)c%21cc(C)ccc%21C(=O)OC.COC(=O)c%22ccc(cc%22)c%23cc(ccc%23C(=O)OC)C(=O)OC.COC(=O)c%24cccc(c%24)C(=O)OC.COC(=O)c%25ccc(C(=O)OC)c(c%25)C(=O)OC.COC(=O)c%26ccc%27c(c%26)C(=O)c%28ccc(cc%27%28)C(=O)OC.COC(=O)c%29ccc(C)c%30c%29OC(=O)c%31ccccc%30%31.COC(=O)c%32ccccc%32C(=O)OC.COC(=O)c%33ccc(C)cc%33C(=O)OC.Cc%34ccc(C)cc%34.Cc%35ccc(cc%35)C(O)=O.OC(=O)c%36ccccc%36,-6.73167777280,0.00000000000,1,G1,5299.45600,49.35298,1419.35170,388,86,4,89,57,2012,35,0,1,36,1214.34,2230.68512432293,0.00000030872,20720.26770814390
A-2593,"2-[3-(heptan-3-yl)-1,2-oxazolidin-2-yl]ethyl N-{6-[({2-[3-(heptan-3-yl)-1,2-oxazolidin-2-yl]ethoxy}carbonyl)amino]hexyl}carbamate","InChI=1S/C32H62N4O6/c1-5-9-15-27(7-3)29-17-23-41-35(29)21-25-39-31(37)33-19-13-11-12-14-20-34-32(38)40-26-22-36-30(18-24-42-36)28(8-4)16-10-6-2/h27-30H,5-26H2,1-4H3,(H,33,37)(H,34,38)",BDNIMOQMOANQMV-UHFFFAOYSA-N,CCCCC(CC)C1CCON1CCOC(=O)NCCCCCCNC(=O)OCCN2OCCC2C(CC)CCCC,-5.79056082370,0.00000000000,1,G1,598.87000,6.44380,165.90740,42,8,2,10,23,246,0,2,2,2,101.60,255.34548809176,1.43477498128,656.49335218718
A-2594,methyl 3-[3-(benzotriazol-2-yl)-5-tert-butyl-4-hydroxyphenyl]propanoate,"InChI=1S/C20H23N3O3/c1-20(2,3)14-11-13(9-10-18(24)26-4)12-17(19(14)25)23-21-15-7-5-6-8-16(15)22-23/h5-8,11-12,25H,9-10H2,1-4H3",UJRDRFZCRQNLJM-UHFFFAOYSA-N,COC(=O)CCc1cc(n2nc3ccccc3n2)c(O)c(c1)C(C)(C)C,-6.84932357590,0.00000000000,1,G1,353.42200,3.52920,99.56680,26,6,1,6,4,136,3,0,0,3,77.24,151.95433486053,2.11137763050,921.58007733446
A-2595,3-octadecyl-1-[4-({4-[(octadecylcarbamoyl)amino]phenyl}methyl)phenyl]urea,"InChI=1S/C51H88N4O2/c1-3-5-7-9-11-13-15-17-19-21-23-25-27-29-31-33-43-52-50(56)54-48-39-35-46(36-40-48)45-47-37-41-49(42-38-47)55-51(57)53-44-34-32-30-28-26-24-22-20-18-16-14-12-10-8-6-4-2/h35-42H,3-34,43-45H2,1-2H3,(H2,52,54,56)(H2,53,55,57)",IHBLBMDDUQOYLA-UHFFFAOYSA-N,CCCCCCCCCCCCCCCCCCNC(=O)Nc1ccc(Cc2ccc(NC(=O)NCCCCCCCCCCCCCCCCCC)cc2)cc1,-5.94299464130,0.00000000000,1,G1,789.29100,16.04340,248.82480,57,2,4,6,38,324,2,0,0,2,82.26,351.24373272155,1.40791713247,1105.20500024378
A-2596,"2,5,7,8-tetramethyl-2-(4,8,12-trimethyltridecyl)-3,4-dihydro-2H-1-benzopyran-6-yl acetate","InChI=1S/C31H52O3/c1-21(2)13-10-14-22(3)15-11-16-23(4)17-12-19-31(9)20-18-28-26(7)29(33-27(8)32)24(5)25(6)30(28)34-31/h21-23H,10-20H2,1-9H3/t22-,23-,31-/m1/s1",ZAKOWWREFLAJOT-CEFNRUSXSA-N,CC(C)CCC[C@@H](C)CCC[C@@H](C)CCC[C@]1(C)CCc2c(C)c(OC(C)=O)c(C)c(C)c2O1,-5.77154522510,0.00000000000,1,G1,472.75400,9.05996,144.03500,34,3,0,3,13,194,1,0,1,2,35.53,209.93773738494,1.82120540900,809.63048042273
A-2597,"1,4-bis(iodomethyl)cyclohexane","InChI=1S/C8H14I2/c9-5-7-1-2-8(6-10)4-3-7/h7-8H,1-6H2",CADHELUGADNHSF-UHFFFAOYSA-N,ICC1CCC(CI)CC1,-5.74819757180,0.00000000000,1,G1,364.00800,3.66280,63.22200,10,0,0,2,2,60,0,1,1,1,0.00,90.81169091716,2.17383197845,73.25838096618
A-2598,"[1,3(or 1,4)-phenylenebis(1-methylethylidene)]bis[tert-butyl] peroxide","InChI=1S/C20H34O4/c1-17(2,3)21-23-19(7,8)15-11-13-16(14-12-15)20(9,10)24-22-18(4,5)6/h11-14H,1-10H3",GWQOYRSARAWVTC-UHFFFAOYSA-N,CC(C)(C)OOC(C)(C)c1ccc(cc1)C(C)(C)OOC(C)(C)C,-5.73715158730,0.59516584910,2,G2,338.48800,5.65020,96.34000,24,4,0,4,6,138,1,0,0,1,36.92,146.85336427055,2.83841355455,467.05520970458
A-2599,Boehmite (Al(OH)O),InChI=1S/Al.H2O.O/h;1H2;/q+3;;-2/p-1,VXAUWWUXCIMFIM-UHFFFAOYSA-M,[OH-].[O--].[Al+3],-5.02524795160,0.00000000000,1,G1,59.98800,-0.67640,8.37630,3,1,0,3,0,16,0,0,0,0,58.50,29.20349760872,0.00000000000,2.75488750216
A-2601,"1,1'-disulfanediyldioctadecane","InChI=1S/C36H74S2/c1-3-5-7-9-11-13-15-17-19-21-23-25-27-29-31-33-35-37-38-36-34-32-30-28-26-24-22-20-18-16-14-12-10-8-6-4-2/h3-36H2,1-2H3",MQQKTNDBASEZSD-UHFFFAOYSA-N,CCCCCCCCCCCCCCCCCCSSCCCCCCCCCCCCCCCCCC,-6.05775888550,0.00000000000,1,G1,571.12200,14.89080,184.00800,38,2,0,2,35,230,0,0,0,0,0.00,251.15840716879,3.00773498230,347.53854556278
A-2602,2-decyltetradecanoic acid,"InChI=1S/C24H48O2/c1-3-5-7-9-11-13-14-16-18-20-22-23(24(25)26)21-19-17-15-12-10-8-6-4-2/h23H,3-22H2,1-2H3,(H,25,26)",OYXVDHZABMXCMX-UHFFFAOYSA-N,CCCCCCCCCCCCC(CCCCCCCCCC)C(O)=O,-5.86763952160,0.00000000000,1,G1,368.64600,8.52900,114.81380,26,1,1,2,21,156,0,0,0,0,37.30,164.08867551119,3.46261279047,287.93523037176
A-2604,ZIRCONIUM,InChI=1S/Zr,QCWXUUIWCKQGHC-UHFFFAOYSA-N,[Zr],-5.35804912000,2.88852617191,3,G4,91.22400,-0.00250,0.00000,1,0,0,1,0,4,0,0,0,0,0.00,26.61673535049,0.00000000000,0.00000000000
A-2605,"2,2,4,6,6-pentamethyl-4-[(trimethylsilyl)oxy]-3,5-dioxa-2,4,6-trisilaheptane","InChI=1S/C10H30O3Si4/c1-14(2,3)11-17(10,12-15(4,5)6)13-16(7,8)9/h1-10H3",RGMZNZABJYWAEC-UHFFFAOYSA-N,C[Si](C)(C)O[Si](C)(O[Si](C)(C)C)O[Si](C)(C)C,-5.93602617220,0.00000000000,1,G1,310.69100,4.10960,84.91100,17,3,0,7,6,104,0,0,0,0,27.69,111.62828590088,4.94705065173,208.95331243459
A-2606,N-(2-ethoxyphenyl)-N'-[4-(10-methylundecyl)phenyl]ethanediamide,"InChI=1S/C28H40N2O3/c1-4-33-26-17-13-12-16-25(26)30-28(32)27(31)29-24-20-18-23(19-21-24)15-11-9-7-5-6-8-10-14-22(2)3/h12-13,16-22H,4-11,14-15H2,1-3H3,(H,29,31)(H,30,32)",PIPJHDJQUXGVNR-UHFFFAOYSA-N,CCOc1ccccc1NC(=O)C(=O)Nc2ccc(CCCCCCCCCC(C)C)cc2,-6.09944946990,0.00000000000,1,G1,452.63900,6.98180,136.79040,33,3,2,5,14,180,2,0,0,2,67.43,198.86388495272,1.66906377323,846.47592547752
A-2607,Silicon nitride,"InChI=1S/N4Si3/c1-5-2-6(1)3(5)7(1,2)4(5)6",HQVNEWCFYHHQES-UHFFFAOYSA-N,N12[Si]34N5[Si]16N3[Si]25N46,-5.66989307760,0.00000000000,1,G1,140.28600,-2.41720,24.61800,7,4,0,7,0,32,0,13,13,13,12.96,42.48102800738,2.42436610693,183.23183265414
A-2608,"2-ethylhexyl 3,5,5-trimethylhexanoate","InChI=1S/C17H34O2/c1-7-9-10-15(8-2)13-19-16(18)11-14(3)12-17(4,5)6/h14-15H,7-13H2,1-6H3",LCVHZNSIAYNAGX-UHFFFAOYSA-N,CCCCC(CC)COC(=O)CC(C)CC(C)(C)C,-5.95497697170,1.23856062735,2,G2,270.45700,5.20840,82.11800,19,2,0,2,9,114,0,0,0,0,26.30,119.85339218773,3.90128356004,240.13684479318
A-2609,calcium titanium trioxide,InChI=1S/Ca.3O.Ti/q+2;3*-2;+4,WEUCVIBPSSMHJG-UHFFFAOYSA-N,[O--].[O--].[O--].[Ca++].[Ti+4],-5.65623240030,0.00000000000,1,G1,135.94200,-0.73970,7.81350,5,0,0,5,0,24,0,0,0,0,85.50,74.93263965489,0.00000000000,6.85475297227
A-2610,"heptyl 3-[3-(2H-1,2,3-benzotriazol-2-yl)-5-tert-butyl-4-hydroxyphenyl]propanoate nonyl 3-[3-(2H-1,2,3-benzotriazol-2-yl)-5-tert-butyl-4-hydroxyphenyl]propanoate octyl 3-[3-(2H-1,2,3-benzotriazol-2-yl)-5-tert-butyl-4-hydroxyphenyl]propanoate","InChI=1S/C26H35N3O3/c1-6-18(2)10-9-15-32-24(30)14-13-19-16-20(26(3,4)5)25(31)23(17-19)29-27-21-11-7-8-12-22(21)28-29/h7-8,11-12,16-18,31H,6,9-10,13-15H2,1-5H3",HMILXGPZMQDAKE-UHFFFAOYSA-N,CCC(C)CCCOC(=O)CCc1cc(n2nc3ccccc3n2)c(O)c(c1)C(C)(C)C,-6.16394017920,0.61092437480,2,G2,437.58400,5.72570,127.19880,32,6,1,6,9,172,3,0,0,3,77.24,190.14398754691,1.77345646641,1032.85461839151
A-2613,dicalcium (phosphonatooxy)phosphonate,"InChI=1S/2Ca.H4O7P2/c;;1-8(2,3)7-9(4,5)6/h;;(H2,1,2,3)(H2,4,5,6)/q2*+2;/p-4",JUNWLZAGQLJVLR-UHFFFAOYSA-J,[Ca++].[Ca++].[O-][P]([O-])(=O)O[P]([O-])([O-])=O,-5.99845935710,0.00000000000,1,G1,254.09700,-4.10120,27.80600,11,7,0,11,2,56,0,0,0,0,135.61,121.99554649112,-0.00000032000,154.87959510731
A-2614,"4-[(4-hydroxy-9,10-dioxo-9,10-dihydroanthracen-1-yl)amino]phenyl methanesulfonate","InChI=1S/C21H15NO6S/c1-29(26,27)28-13-8-6-12(7-9-13)22-16-10-11-17(23)19-18(16)20(24)14-4-2-3-5-15(14)21(19)25/h2-11,22-23H,1H3",NTZOUXAZCADJBZ-UHFFFAOYSA-N,C[S](=O)(=O)Oc1ccc(Nc2ccc(O)c3C(=O)c4ccccc4C(=O)c23)cc1,-6.21422798450,0.00000000000,1,G1,409.41900,3.24960,106.61030,29,7,2,8,4,146,3,0,1,4,109.77,166.24967434453,1.73776723125,1262.82886302464
A-2615,"nickel(2+) ion butan-1-amine 2-{[2-oxido-5-(2,4,4-trimethylpentan-2-yl)phenyl]sulfanyl}-4-(2,4,4-trimethylpentan-2-yl)benzen-1-olate","InChI=1S/C28H42O2S.C4H11N.Ni/c1-25(2,3)17-27(7,8)19-11-13-21(29)23(15-19)31-24-16-20(12-14-22(24)30)28(9,10)18-26(4,5)6;1-2-3-4-5;/h11-16,29-30H,17-18H2,1-10H3;2-5H2,1H3;/q;;+2/p-2",DPLLDVMBMPQDCO-UHFFFAOYSA-L,[Ni++].CCCCN.CC(C)(C)CC(C)(C)c1ccc([O-])c(Sc2cc(ccc2[O-])C(C)(C)CC(C)(C)C)c1,-6.44604059440,0.00000000000,1,G1,572.52500,8.15530,154.05740,37,4,1,5,8,212,2,0,0,2,72.14,241.89139161350,0.00000196500,894.22898310466
A-2617,4-(2-{3-[2-(4-hydroxyphenyl)propan-2-yl]phenyl}propan-2-yl)phenol,"InChI=1S/C24H26O2/c1-17(21-6-10-23(25)11-7-21)14-19-4-3-5-20(16-19)15-18(2)22-8-12-24(26)13-9-22/h3-13,16-18,25-26H,14-15H2,1-2H3",KOWHWSRFLBFYRR-UHFFFAOYSA-N,CC(Cc1cccc(CC(C)c2ccc(O)cc2)c1)c3ccc(O)cc3,-6.23863564040,0.00000000000,1,G1,346.47000,5.79020,106.89360,26,2,2,2,6,134,3,0,0,3,40.46,155.32371172240,1.67236150691,766.09442737596
A-2618,N-(3-methylphenyl)-4-{4-[(3-methylphenyl)(phenyl)amino]phenyl}-N-phenylaniline,"InChI=1S/C38H32N2/c1-29-11-9-17-37(27-29)39(33-13-5-3-6-14-33)35-23-19-31(20-24-35)32-21-25-36(26-22-32)40(34-15-7-4-8-16-34)38-18-10-12-30(2)28-38/h3-28H,1-2H3",OGGKVJMNFFSDEV-UHFFFAOYSA-N,Cc1cccc(c1)N(c2ccccc2)c3ccc(cc3)c4ccc(cc4)N(c5ccccc5)c6cccc(C)c6,-6.41219837960,0.00000000000,1,G1,516.68800,10.91004,170.71800,40,2,0,2,7,194,6,0,0,6,6.48,236.96642571902,1.32084868349,1559.02954949118
A-2619,N-methyl-N-phenyl{[methyl(phenyl)carbamothioyl]disulfanyl}carbothioamide,"InChI=1S/C16H16N2S4/c1-17(13-9-5-3-6-10-13)15(19)21-22-16(20)18(2)14-11-7-4-8-12-14/h3-12H,1-2H3",RDQQCSOIXMZZQR-UHFFFAOYSA-N,CN(C(=S)SSC(=S)N(C)c1ccccc1)c2ccccc2,-6.26076999220,2.15051499785,2,G2,364.58600,5.21040,110.06800,22,4,0,6,2,114,2,0,0,2,6.48,149.83167575504,1.89468668310,573.60877017211
A-2620,"N-{2-[(2-cyano-4,6-dinitrophenyl)diazenyl]-5-(diethylamino)phenyl}acetamide","InChI=1S/C19H19N7O5/c1-4-24(5-2)14-6-7-16(17(9-14)21-12(3)27)22-23-19-13(11-20)8-15(25(28)29)10-18(19)26(30)31/h6-10H,4-5H2,1-3H3,(H,21,27)",NHBNDXGKNAEBAI-UHFFFAOYSA-N,CCN(CC)c1ccc(N=Nc2c(cc(cc2[N+]([O-])=O)[N+]([O-])=O)C#N)c(NC(C)=O)c1,-6.32777259440,0.00000000000,1,G1,425.40500,4.59468,112.94850,31,9,1,12,8,160,2,0,0,2,167.13,176.65961905115,2.60732914073,1103.55598869672
A-2621,"Phenol, 4-methyl-, reaction products with dicyclopentadiene and isobutylene","InChI=1S/C10H12.C7H8O.C4H8/c1-2-9-7-4-5-8(6-7)10(9)3-1;1-6-2-4-7(8)5-3-6;1-4(2)3/h1-2,4-5,7-10H,3,6H2;2-5,8H,1H3;1H2,2-3H3",UQQYHXZNSYZMEN-UHFFFAOYSA-N,CC(C)=C.Cc1ccc(O)cc1.C2C=CC3C4CC(C=C4)C23,-6.17092731890,0.65051499785,2,G2,296.45400,5.66762,94.80580,22,1,1,1,0,118,1,1,3,4,20.23,134.62512833756,0.00000013325,524.77480168243
A-2622,"Sorbitan monolaurate, ethoxylated","InChI=1S/C26H50O10/c1-2-3-4-5-6-7-8-9-10-11-24(30)34-19-18-31-20-22(32-15-12-27)26-25(35-17-14-29)23(21-36-26)33-16-13-28/h22-23,25-29H,2-21H2,1H3",HMFKFHLTUCJZJO-UHFFFAOYSA-N,CCCCCCCCCCCC(=O)OCCOCC(OCCO)C1OCC(OCCO)C1OCCO,-6.41720256320,0.00000000000,1,G1,522.67600,1.99840,133.83940,36,10,3,10,25,214,0,1,1,1,133.14,216.08246746789,2.26792392212,507.11656887146
A-2623,16-methylheptadecan-1-ol,"InChI=1S/C18H38O/c1-18(2)16-14-12-10-8-6-4-3-5-7-9-11-13-15-17-19/h18-19H,3-17H2,1-2H3",WNWHHMBRJJOGFJ-UHFFFAOYSA-N,CC(C)CCCCCCCCCCCCCCCO,-6.25607761590,0.00000000000,1,G1,270.50100,6.09610,86.56180,19,1,1,1,15,116,0,0,0,0,20.23,121.73750072477,2.91407335611,153.76927278139
A-2624,"2,3-bis(acetyloxy)propyl dodecanoate","InChI=1S/C19H34O6/c1-4-5-6-7-8-9-10-11-12-13-19(22)24-15-18(25-17(3)21)14-23-16(2)20/h18H,4-15H2,1-3H3",NBMAHNZMRSQCPG-UHFFFAOYSA-N,CCCCCCCCCCCC(=O)OCC(COC(C)=O)OC(C)=O,-6.37836761440,0.00000000000,1,G1,358.47500,3.94530,94.99000,25,6,0,6,15,146,0,0,0,0,78.90,151.13341107562,3.70445751030,380.11060708846
A-2625,"2-Butenedioic acid (E)-, di-C12-18-alkyl esters","InChI=1S/C34H64O4/c1-3-5-7-9-11-13-15-17-19-21-23-25-27-31-37-33(35)29-30-34(36)38-32-28-26-24-22-20-18-16-14-12-10-8-6-4-2/h29-30H,3-28,31-32H2,1-2H3/b30-29+",CUKXIDNDOQQWQN-QVIHXGFCSA-N,CCCCCCCCCCCCCCCOC(=O)/C=C/C(=O)OCCCCCCCCCCCCCCC,-6.55378758460,0.00000000000,1,G1,536.88200,10.81140,162.44800,38,4,0,4,30,224,0,0,0,0,52.60,236.64287242983,3.35430568874,482.57886096604
A-2626,"2-Butenedioic acid (E)-, di-C8-18-alkyl esters","InChI=1S/C20H36O4/c1-3-5-7-9-11-13-17-23-19(21)15-16-20(22)24-18-14-12-10-8-6-4-2/h15-16H,3-14,17-18H2,1-2H3/b16-15+",TVWTZAGVNBPXHU-FOCLMDBBSA-N,CCCCCCCCOC(=O)\C=C\C(=O)OCCCCCCCC,-6.35603095900,0.00000000000,1,G1,340.50400,5.35000,97.81000,24,4,0,4,16,140,0,0,0,0,52.60,147.53368282828,3.47888567788,304.53054999722
A-2627,bis(4-isocyanatophenyl) [(4-isocyanatophenyl)sulfanyl]phosphonate,"InChI=1S/C21H12N3O6PS/c25-13-22-16-1-7-19(8-2-16)28-31(32,29-20-9-3-17(4-10-20)23-14-26)30-21-11-5-18(6-12-21)24-15-27/h1-12H",KGLSETWPYVUTQX-UHFFFAOYSA-N,O=C=Nc1ccc(O[P](=S)(Oc2ccc(cc2)N=C=O)Oc3ccc(cc3)N=C=O)cc1,-6.49171925580,0.00000000000,1,G1,465.38300,5.34980,118.83950,32,10,0,11,9,158,3,0,0,3,115.98,186.53151542426,1.88615793178,1116.14264720246
A-2628,bis(8-methylnonyl) but-2-enedioate,"InChI=1S/C24H44O4/c1-21(2)15-11-7-5-9-13-19-27-23(25)17-18-24(26)28-20-14-10-6-8-12-16-22(3)4/h17-18,21-22H,5-16,19-20H2,1-4H3/b18-17+",WVUCNLQROBXNOX-ISLYRVAYSA-N,CC(C)CCCCCCCOC(=O)\C=C\C(=O)OCCCCCCCC(C)C,-6.42227459110,0.00000000000,1,G1,396.61200,6.62220,116.13800,28,4,0,4,18,164,0,0,0,0,52.60,172.99345128587,3.47784235548,374.82821087156
A-2629,didodecyl but-2-enedioate,"InChI=1S/C28H52O4/c1-3-5-7-9-11-13-15-17-19-21-25-31-27(29)23-24-28(30)32-26-22-20-18-16-14-12-10-8-6-4-2/h23-24H,3-22,25-26H2,1-2H3/b24-23+",HEJZJSIRBLOWPD-WCWDXBQESA-N,CCCCCCCCCCCCOC(=O)\C=C\C(=O)OCCCCCCCCCCCC,-6.47973842190,0.00000000000,1,G1,452.72000,8.47080,134.74600,32,4,0,4,24,188,0,0,0,0,52.60,198.45321974346,3.39491703227,404.71332656107
A-2630,propan-2-yl (9Z)-octadec-9-enoate,"InChI=1S/C21H40O2/c1-4-5-6-7-8-9-10-11-12-13-14-15-16-17-18-19-21(22)23-20(2)3/h11-12,20H,4-10,13-19H2,1-3H3/b12-11-",PZQSQRCNMZGWFT-QXMHVHEDSA-N,CCCCCCCC\C=C/CCCCCCCC(=O)OC(C)C,-6.33518901630,0.00000000000,1,G1,324.54900,6.97550,100.68000,23,2,0,2,16,136,0,0,0,0,26.30,144.62355761313,3.17525950011,281.56615682836
A-2631,"2,2-bis(hydroxymethyl)propane-1,3-diol; decanoic acid; heptanoic acid; octanoic acid","InChI=1S/C10H20O2.C8H16O2.C7H14O2.C5H12O4/c1-2-3-4-5-6-7-8-9-10(11)12;1-2-3-4-5-6-7-8(9)10;1-2-3-4-5-6-7(8)9;6-1-5(2-7,3-8)4-9/h2-9H2,1H3,(H,11,12);2-7H2,1H3,(H,9,10);2-6H2,1H3,(H,8,9);6-9H,1-4H2",DZVDMBMUZJQKGH-UHFFFAOYSA-N,CCCCCCCCCC(O)=O.CCCCCCCC(O)=O.CCCCCCC(O)=O.OCC(CO)(CO)CO,-6.61940343020,0.00000000000,1,G1,582.81600,5.62660,158.42860,40,7,7,10,23,242,0,0,0,0,192.82,242.38426837142,-0.00000021762,519.07270203174