ID,Name,InChI,InChIKey,SMILES,Solubility,SD,Ocurrences,Group,MolWt,MolLogP,MolMR,HeavyAtomCount,NumHAcceptors,NumHDonors,NumHeteroatoms,NumRotatableBonds,NumValenceElectrons,NumAromaticRings,NumSaturatedRings,NumAliphaticRings,RingCount,TPSA,LabuteASA,BalabanJ,BertzCT
A-4304,ammonium sodium 2-[4-[[1-[[(2-methoxy-5-methyl-4-sulphonatophenyl)amino]carbonyl]-2-oxopropyl]azo]phenyl]-6-methylbenzothiazole-7-sulphonate,"InChI=1S/C26H24N4O9S3.H3N.Na/c1-13-5-10-18-23(24(13)42(36,37)38)40-26(28-18)16-6-8-17(9-7-16)29-30-22(15(3)31)25(32)27-19-11-14(2)21(41(33,34)35)12-20(19)39-4;;/h5-12,22H,1-4H3,(H,27,32)(H,33,34,35)(H,36,37,38);1H3;/q;;+1/p-1",BPSOMXDZJFRMBW-UHFFFAOYSA-M,[NH4+].[Na+].COc1cc(c(C)cc1NC(=O)C(N=Nc2ccc(cc2)c3sc4c(ccc(C)c4[S]([O-])(=O)=O)n3)C(C)=O)[S]([O-])(=O)=O,-0.62306247770,0.00000000000,1,G1,671.71100,1.45714,157.04990,44,13,2,18,9,228,4,0,0,4,243.91,278.88151357993,0.00000337500,1978.25978403316
A-4305,"5,8,11,13,16,19-hexaoxatricosane","InChI=1S/C17H36O6/c1-3-5-7-18-9-11-20-13-15-22-17-23-16-14-21-12-10-19-8-6-4-2/h3-17H2,1-2H3",DKWHHTWSTXZKDW-UHFFFAOYSA-N,CCCCOCCOCCOCOCCOCCOCCCC,-1.30163577570,0.00000000000,1,G1,336.46900,2.64370,89.86300,23,6,0,6,20,140,0,0,0,0,55.38,141.25959623522,2.92196219439,183.52261344044
A-4306,"3,6-dimethyl-1,4-dioxane-2,5-dione","InChI=1S/C6H8O4/c1-3-5(7)10-4(2)6(8)9-3/h3-4H,1-2H3",JJTUDXZGHPGLLC-UHFFFAOYSA-N,CC1OC(=O)C(C)OC1=O,-0.93602586250,0.00000000000,1,G1,144.12600,-0.13660,31.10800,10,4,0,4,0,56,0,1,1,1,52.60,58.10826510538,2.63143573782,154.58662974004
A-4307,bromo(chloro)methane,InChI=1S/CH2BrCl/c2-1-3/h1H2,JPOXNPPZZKNXOV-UHFFFAOYSA-N,ClCBr,-0.88916410240,1.50000000000,2,G2,129.38400,1.57760,19.64700,3,0,0,2,0,20,0,0,0,0,0.00,32.91006486035,1.63299316186,4.75488750216
A-4308,2-aminobenzamide,"InChI=1S/C7H8N2O/c8-6-4-2-1-3-5(6)7(9)10/h1-4H,8H2,(H2,9,10)",PXBFMLJZNCDSMP-UHFFFAOYSA-N,NC(=O)c1ccccc1N,-0.91392231670,0.00000000000,1,G1,136.15400,0.36770,39.37230,10,2,2,3,1,52,1,0,0,1,69.11,58.63764872796,3.15294144668,257.53794892648
A-4312,(3Z)-hex-3-en-1-ol,"InChI=1S/C6H12O/c1-2-3-4-5-6-7/h3-4,7H,2,5-6H2,1H3/b4-3-",UFLHIIWVXFIJGU-ARJAWSKDSA-N,CC\C=C/CCO,-0.78585480380,0.03535673050,2,G3,100.16100,1.33500,31.13380,7,1,1,1,3,42,0,0,0,0,20.23,44.66859231982,2.77714929024,48.14170945008
A-4316,"2-methoxy-3,4-dihydro-2H-pyran","InChI=1S/C6H10O2/c1-7-6-4-2-3-5-8-6/h3,5-6H,2,4H2,1H3",XCYWUZHUTJDTGS-UHFFFAOYSA-N,COC1CCC=CO1,-0.85333310500,0.00000000000,1,G1,114.14400,1.28300,30.25600,8,2,0,2,1,46,0,0,1,1,18.46,49.09561787311,2.26847147494,88.52932501298
A-4318,"4,5-bis(hydroxymethyl)-2-methylpyridin-3-ol hydrochloride","InChI=1S/C8H11NO3.ClH/c1-5-8(12)7(4-11)6(3-10)2-9-5;/h2,10-12H,3-4H2,1H3;1H",ZUFQODAHGAHPFQ-UHFFFAOYSA-N,[H+].[Cl-].Cc1ncc(CO)c(CO)c1O,-0.11171258280,0.07050629140,2,G3,205.64100,-2.80328,43.59640,13,4,3,5,2,74,1,0,0,1,73.58,83.76647032227,0.00000000000,296.16003516872
A-4321,tetrasodium tris(peroxol) dicarbonate,"InChI=1S/2CH2O3.4Na.3H2O2/c2*2-1(3)4;;;;;3*1-2/h2*(H2,2,3,4);;;;;3*1-2H/q;;4*+1;;;/p-4",MSLRPWGRFCKNIZ-UHFFFAOYSA-J,[Na+].[Na+].[Na+].[Na+].OO.OO.OO.[O-]C([O-])=O.[O-]C([O-])=O,-0.30943382240,0.03027345559,3,G5,314.01800,-16.82580,26.56480,18,12,6,16,0,90,0,0,0,0,247.76,188.83438391645,-0.00000000792,80.07820003462
A-4322,"Nonylphenol, ethoxylated","InChI=1S/C19H32O3/c1-2-3-4-5-6-7-8-9-18-10-12-19(13-11-18)22-17-16-21-15-14-20/h10-13,20H,2-9,14-17H2,1H3",BLXVTZPGEOGTGG-UHFFFAOYSA-N,CCCCCCCCCc1ccc(OCCOCCO)cc1,-0.30451023930,0.00000000000,1,G1,308.46200,4.36740,91.53880,22,3,1,3,14,126,1,0,0,1,38.69,135.19697481786,2.05882060756,348.20285778166
A-4323,amino(imino)methanaminium; cyanosulfanide,"InChI=1S/CH5N3.CHNS/c2-1(3)4;2-1-3/h(H5,2,3,4);3H",ZJYYHGLJYGJLLN-UHFFFAOYSA-N,NC(N)=N.SC#N,1.10648808800,0.20348325532,4,G5,118.16500,-0.76415,30.70050,7,3,4,5,0,40,0,0,0,0,99.68,47.02280303392,0.00000000000,78.18080946738
A-4324,sodium dodecyl sulfate,"InChI=1S/C12H26O4S.Na/c1-2-3-4-5-6-7-8-9-10-11-12-16-17(13,14)15;/h2-12H2,1H3,(H,13,14,15);/q;+1/p-1",DBMJMQXJHONAFJ-UHFFFAOYSA-M,[Na+].CCCCCCCCCCCCO[S]([O-])(=O)=O,-0.28388140830,0.15711494043,5,G5,288.38500,0.38810,67.49320,18,4,0,6,12,104,0,0,0,0,66.43,134.11819902451,0.00000000000,254.80302513414
A-4325,"3-methyl-2-(2-oxo-1,3-diazinan-1-yl)butanoic acid","InChI=1S/C9H16N2O3/c1-6(2)7(8(12)13)11-5-3-4-10-9(11)14/h6-7H,3-5H2,1-2H3,(H,10,14)(H,12,13)",AFGBRTKUTJQHIP-UHFFFAOYSA-N,CC(C)C(N1CCCNC1=O)C(O)=O,-1.10286192580,0.00861325819,3,G5,200.23800,0.51090,50.98350,14,2,2,5,3,80,0,1,1,1,69.64,83.07993059557,2.75399352372,240.21156588240
A-4326,1-cyanoprop-2-en-1-yl acetate,"InChI=1S/C6H7NO2/c1-3-6(4-7)9-5(2)8/h3,6H,1H2,2H3",MEHLEOUIWVWVBF-UHFFFAOYSA-N,CC(=O)OC(C=C)C#N,-0.89869394520,0.00000000000,1,G1,125.12700,0.62768,31.36400,9,3,0,3,2,48,0,0,0,0,50.09,53.54200557865,3.73097891016,156.93102051518
A-4329,2-methylcyclohexanol,"InChI=1S/C7H14O/c1-6-4-2-3-5-7(6)8/h6-8H,2-5H2,1H3",NDVWOBYBJYUSMF-UHFFFAOYSA-N,CC1CCCCC1O,-0.86449586800,0.00000000000,1,G1,114.18800,1.55740,33.63880,8,1,1,1,0,48,0,1,1,1,20.23,50.71730631288,2.27940027096,60.78707744334
A-4334,1-phenoxypropan-2-ol,"InChI=1S/C9H12O2/c1-8(10)7-11-9-5-3-2-4-6-9/h2-6,8,10H,7H2,1H3",IBLKWZIFZMJLFL-UHFFFAOYSA-N,CC(O)COc1ccccc1,-1.00341773060,0.06879113470,2,G3,152.19300,1.44620,43.61780,11,2,1,2,3,60,1,0,0,1,29.46,66.43400844439,2.39229116570,193.97752353949
A-4335,2-(1-methylcarbamimidamido)acetic acid,"InChI=1S/C4H9N3O2/c1-7(4(5)6)2-3(8)9/h2H2,1H3,(H3,5,6)(H,8,9)",CVSVTCORWBXHQV-UHFFFAOYSA-N,CN(CC(O)=O)C(N)=N,-0.93874167330,0.00984006985,2,G3,131.13500,-1.10373,32.17990,9,2,3,5,2,52,0,0,0,0,90.41,52.57490858974,3.63243215194,133.77443751082
A-4336,2-methylaniline,"InChI=1S/C7H9N/c1-6-4-2-3-5-7(6)8/h2-5H,8H2,1H3",RNVCVTLRINQCPJ-UHFFFAOYSA-N,Cc1ccccc1N,-0.85392523450,0.59859565988,4,G4,107.15600,1.57722,35.59140,8,1,1,1,0,42,1,0,0,1,26.02,49.13623593091,3.13486151135,160.49662946460
A-4337,3-[(2-ethylhexyl)oxy]propan-1-amine,"InChI=1S/C11H25NO/c1-3-5-7-11(4-2)10-13-9-6-8-12/h11H,3-10,12H2,1-2H3",DVFGEIYOLIFSRX-UHFFFAOYSA-N,CCCCC(CC)COCCCN,-1.09650911900,0.00000000000,1,G1,187.32700,2.56820,57.79640,13,2,1,2,9,80,0,0,0,0,35.25,82.84210809832,3.25370289705,96.09106854813
A-4339,3-methylbutanal,"InChI=1S/C5H10O/c1-5(2)3-4-6/h4-5H,3H2,1-2H3",YGHRJJRRZDOVPD-UHFFFAOYSA-N,CC(C)CC=O,-0.75908335690,0.05575348921,3,G5,86.13400,1.23140,25.51900,6,1,0,1,2,36,0,0,0,0,17.07,38.36054158546,2.81414422178,39.20310343870
A-4342,L-histidine monohydrochloride,"InChI=1S/C6H9N3O2.ClH/c7-5(6(10)11)1-4-2-8-3-9-4;/h2-3,5H,1,7H2,(H,8,9)(H,10,11);1H/t5-;/m0./s1",QZNNVYOVQUKYSC-JEDNCBNOSA-N,[Cl-].N[C@@H](Cc1[nH]cnc1)C(O)=O.[H+],-0.10764988560,0.00000000000,1,G1,191.61800,-3.51940,39.01490,12,3,3,6,3,68,1,0,0,1,92.00,76.88857603595,0.00000000000,242.03722002333
A-4344,pentasodium bis(phosphonatooxy)phosphinate,"InChI=1S/5Na.H5O10P3/c;;;;;1-11(2,3)9-13(7,8)10-12(4,5)6/h;;;;;(H,7,8)(H2,1,2,3)(H2,4,5,6)/q5*+1;/p-5",HWGNBUXHKFFFIH-UHFFFAOYSA-I,[Na+].[Na+].[Na+].[Na+].[Na+].[O-][P]([O-])(=O)O[P]([O-])(=O)O[P]([O-])([O-])=O,-0.39542321230,0.00000000000,1,G1,367.86200,-18.83460,24.98950,18,10,0,18,4,80,0,0,0,0,184.97,213.28839827041,-0.00000007200,287.47484110049
A-4348,"sodium (2R)-2-[(1R)-1,2-dihydroxyethyl]-4-hydroxy-5-oxo-2,5-dihydrofuran-3-olate","InChI=1S/C6H7O6.Na/c7-1-2(8)5-3(9)4(10)6(11)12-5;/h2,5,8,10-11H,1H2;/q-1;+1/t2-,5-;/m1./s1",QNSCGSPRKIPKTN-RKJRWTFHSA-N,[Na+].O[C@H](C[O-])[C@H]1OC(=C(O)C1=O)O,-0.13254477340,0.00000000000,1,G1,198.10600,-5.03540,33.03740,13,6,3,7,2,68,0,0,1,1,110.05,95.73392937515,0.00000144000,237.27897581592
A-4349,2-methoxyethyl prop-2-enoate,"InChI=1S/C6H10O3/c1-3-6(7)9-5-4-8-2/h3H,1,4-5H2,2H3",HFCUBKYHMMPGBY-UHFFFAOYSA-N,COCCOC(=O)C=C,0.04394167840,0.00000000000,1,G1,130.14300,0.36200,33.03200,9,3,0,3,4,52,0,0,0,0,35.53,54.26297112669,3.06550337939,98.47609517816
A-4350,[(4-sulfamoylphenyl)amino]azanium chloride,"InChI=1S/C6H9N3O2S.ClH/c7-9-5-1-3-6(4-2-5)12(8,10)11;/h1-4,9H,7H2,(H2,8,10,11);1H",IKEURONJLPUALY-UHFFFAOYSA-N,[H+].[Cl-].NNc1ccc(cc1)[S](N)(=O)=O,-0.19127436980,0.00000000000,1,G1,223.68500,-3.26390,46.73730,13,4,3,7,2,74,1,0,0,1,98.21,84.02985023183,0.00000000000,367.16793607094
A-4351,"1,1-dimethylurea","InChI=1S/C3H8N2O/c1-5(2)3(4)6/h1-2H3,(H2,4,6)",YBBLOADPFWKNGS-UHFFFAOYSA-N,CN(C)C(N)=O,0.21243156690,0.00000000000,1,G1,88.11000,-0.37330,23.27040,6,1,1,3,0,36,0,0,0,0,46.33,36.73038172388,3.25758616123,59.81353752813
A-4352,potassium dicyanogolduide,InChI=1S/2CN.Au.K/c2*1-2;;/q2*-1;2*+1,XTFKWYDMKGAZKK-UHFFFAOYSA-N,[K+].[Au+].[C-]#N.[C-]#N,-0.30420872830,0.00000000000,1,G1,288.10100,-2.80576,9.93600,6,2,0,4,0,30,0,0,0,0,47.58,95.45115120735,-0.00000000500,27.01955000865
A-4353,decasodium 2-[(E)-2-{2-sulfonato-4-[(E)-2-{3-sulfonato-4-[(E)-2-{2-sulfonato-4-[(E)-2-{4-[(E)-2-(4-sulfonatophenyl)diazen-1-yl]phenyl}diazen-1-yl]phenyl}ethenyl]phenyl}diazen-1-yl]phenyl}ethenyl]-5-[(E)-2-{4-[(E)-2-(4-sulfonatophenyl)diazen-1-yl]phenyl}diazen-1-yl]benzene-1-sulfonate 2-[(E)-2-{2-sulfonato-4-[(E)-2-{4-[(E)-2-(4-sulfonatophenyl)diazen-1-yl]phenyl}diazen-1-yl]phenyl}ethenyl]-5-[(E)-2-{4-[(E)-2-(4-sulfonatophenyl)diazen-1-yl]phenyl}diazen-1-yl]benzene-1-sulfonate,"InChI=1S/C52H38N10O18S6.C38H28N8O12S4.10Na/c63-81(64,65)47-25-21-41(22-26-47)55-53-37-13-17-39(18-14-37)57-59-43-9-5-33(49(29-43)83(69,70)71)1-3-35-7-11-45(31-51(35)85(75,76)77)61-62-46-12-8-36(52(32-46)86(78,79)80)4-2-34-6-10-44(30-50(34)84(72,73)74)60-58-40-19-15-38(16-20-40)54-56-42-23-27-48(28-24-42)82(66,67)68;47-59(48,49)35-19-15-31(16-20-35)41-39-27-7-11-29(12-8-27)43-45-33-5-3-25(37(23-33)61(53,54)55)1-2-26-4-6-34(24-38(26)62(56,57)58)46-44-30-13-9-28(10-14-30)40-42-32-17-21-36(22-18-32)60(50,51)52;;;;;;;;;;/h1-32H,(H,63,64,65)(H,66,67,68)(H,69,70,71)(H,72,73,74)(H,75,76,77)(H,78,79,80);1-24H,(H,47,48,49)(H,50,51,52)(H,53,54,55)(H,56,57,58);;;;;;;;;;/q;;10*+1/p-10/b3-1+,4-2+,55-53?,56-54?,59-57?,60-58?,62-61?;2-1+,41-39?,42-40?,45-43?,46-44?;;;;;;;;;;",MVVIVTYJFSLIBC-QISMBRTESA-D,[Na+].[Na+].[Na+].[Na+].[Na+].[Na+].[Na+].[Na+].[Na+].[Na+].[O-][S](=O)(=O)c1ccc(cc1)N=Nc2ccc(cc2)N=Nc3ccc(\C=C\c4ccc(cc4[S]([O-])(=O)=O)N=Nc5ccc(cc5)N=Nc6ccc(cc6)[S]([O-])(=O)=O)c(c3)[S]([O-])(=O)=O.[O-][S](=O)(=O)c7ccc(cc7)N=Nc8ccc(cc8)N=Nc9ccc(/C=C/c%10ccc(cc%10[S]([O-])(=O)=O)N=Nc%11ccc(\C=C\c%12ccc(cc%12[S]([O-])(=O)=O)N=Nc%13ccc(cc%13)N=Nc%14ccc(cc%14)[S]([O-])(=O)=O)c(c%11)[S]([O-])(=O)=O)c(c9)[S]([O-])(=O)=O,-1.23154568510,0.00000000000,1,G1,2420.10400,-9.29600,514.18800,158,48,0,68,34,756,14,0,0,14,794.48,1124.74165946961,0.00000079583,8713.63749722703
A-4356,2-hydroxy-2-phenylacetic acid,"InChI=1S/C8H8O3/c9-7(8(10)11)6-4-2-1-3-5-6/h1-5,7,9H,(H,10,11)",IWYDHOAUDWTVEP-UHFFFAOYSA-N,OC(C(O)=O)c1ccccc1,-0.03212694050,0.07787206105,5,G5,152.14900,0.80460,39.03760,11,2,2,3,2,58,1,0,0,1,57.53,63.91127695273,2.85117789016,242.77390023702
A-4359,"5,5-dimethylimidazolidine-2,4-dione","InChI=1S/C5H8N2O2/c1-5(2)3(8)6-4(9)7-5/h1-2H3,(H2,6,7,8,9)",YIROYDNZEPTFOL-UHFFFAOYSA-N,CC1(C)NC(=O)NC1=O,0.03847382010,0.00000000000,1,G1,128.13100,-0.39560,30.75340,9,2,2,4,0,50,0,1,1,1,58.20,52.61595689919,2.81368167441,173.79680833404
A-4361,"tetrasodium 5-({4-[(2-hydroxyethyl)amino]-6-[(3-sulfonatophenyl)amino]-1,3,5-triazin-2-yl}amino)-2-[(E)-2-[4-({4-[(2-hydroxyethyl)amino]-6-[(3-sulfonatophenyl)amino]-1,3,5-triazin-2-yl}amino)-2-sulfonatophenyl]ethenyl]benzene-1-sulfonate","InChI=1S/C36H36N12O14S4.4Na/c49-15-13-37-31-43-33(39-23-3-1-5-27(17-23)63(51,52)53)47-35(45-31)41-25-11-9-21(29(19-25)65(57,58)59)7-8-22-10-12-26(20-30(22)66(60,61)62)42-36-46-32(38-14-16-50)44-34(48-36)40-24-4-2-6-28(18-24)64(54,55)56;;;;/h1-12,17-20,49-50H,13-16H2,(H,51,52,53)(H,54,55,56)(H,57,58,59)(H,60,61,62)(H3,37,39,41,43,45,47)(H3,38,40,42,44,46,48);;;;/q;4*+1/b8-7+;;;;",HECFMGCMMKUMIN-YZNHWISSSA-N,[Na+].[Na+].[Na+].[Na+].OCCNc1nc(Nc2cccc(c2)[S](O)(=O)=O)nc(Nc3ccc(\C=C\c4ccc(Nc5nc(NCCO)nc(Nc6cccc(c6)[S](O)(=O)=O)n5)cc4[S](O)(=O)=O)c(c3)[S](O)(=O)=O)n1,-0.88769042670,0.00000000000,1,G1,1080.98200,-8.98740,237.89020,70,22,12,34,20,348,6,0,0,6,407.46,488.59059482674,0.00000420083,3080.09001527578
A-4364,phenylphosphonic acid,"InChI=1S/C6H7O3P/c7-10(8,9)6-4-2-1-3-5-6/h1-5H,(H2,7,8,9)",QLZHNIAADXEJJP-UHFFFAOYSA-N,O[P](O)(=O)c1ccccc1,-1.02692305810,0.59784897096,5,G4,158.09300,0.48960,38.12010,10,1,2,4,1,54,1,0,0,1,57.53,58.48281104024,3.08763678703,250.95525572343
A-4367,"disodium 2-[(E)-2-[3-methyl-5-oxo-1-(4-sulfonatophenyl)-4,5-dihydro-1H-pyrazol-4-yl]diazen-1-yl]benzoate","InChI=1S/C17H14N4O6S.2Na/c1-10-15(19-18-14-5-3-2-4-13(14)17(23)24)16(22)21(20-10)11-6-8-12(9-7-11)28(25,26)27;;/h2-9,15H,1H3,(H,23,24)(H,25,26,27);;/q;2*+1/p-2",RTBLVNSNIFUUFC-UHFFFAOYSA-L,[Na+].[Na+].CC1=NN(C(=O)C1N=Nc2ccccc2C([O-])=O)c3ccc(cc3)[S]([O-])(=O)=O,-1.49131499300,0.00000000000,1,G1,446.35200,-5.16280,94.07670,30,9,0,13,5,144,2,0,1,3,154.72,215.95215997255,0.00000225000,1119.32324239213
A-4371,"sodium 4-[(dichloro-1,3,5-triazin-2-yl)amino]benzene-1-sulfonate","InChI=1S/C9H6Cl2N4O3S.Na/c10-7-13-8(11)15-9(14-7)12-5-1-3-6(4-2-5)19(16,17)18;/h1-4H,(H,16,17,18)(H,12,13,14,15);/q;+1/p-1",BAINTIMFWTXLNC-UHFFFAOYSA-M,[Na+].[O-][S](=O)(=O)c1ccc(Nc2nc(Cl)nc(Cl)n2)cc1,-1.38103092010,0.00000000000,1,G1,343.12700,-1.16990,67.53490,20,7,1,11,3,100,2,0,0,2,107.90,146.34587153852,0.00000200000,691.38264116236
A-4372,formaldehyde; 2-(2-hydroxyethylamino)ethanol; 2-methyloxirane; 2-nonylphenol,"InChI=1S/C15H24O.C4H11NO2.C3H6O.CH2O/c1-2-3-4-5-6-7-8-11-14-12-9-10-13-15(14)16;6-3-1-5-2-4-7;1-3-2-4-3;1-2/h9-10,12-13,16H,2-8,11H2,1H3;5-7H,1-4H2;3H,2H2,1H3;1H2",RUMPVAYNMPZNCZ-UHFFFAOYSA-N,CCCCCCCCCc1ccccc1O.CC2CO2.OCCNCCO.C=O,-1.46306949070,0.00000000000,1,G1,413.59900,3.46610,119.38010,29,6,4,6,12,170,1,1,1,2,102.32,176.85471214104,0.00000000000,437.03129981436
A-4374,"2-[7-(diethylamino)-2-oxo-2H-1-benzopyran-3-yl]-1,3-dimethyl-1H-benzimidazolium chloride","InChI=1S/C22H24N3O2.ClH/c1-5-25(6-2)16-12-11-15-13-17(22(26)27-20(15)14-16)21-23(3)18-9-7-8-10-19(18)24(21)4;/h7-14H,5-6H2,1-4H3;1H/q+1;/p-1",LCVNGSHJQQOSDB-UHFFFAOYSA-M,[Cl-].CCN(CC)c1ccc2C=C(C(=O)Oc2c1)c3n(C)c4ccccc4[n+]3C,-1.45056137520,0.00000000000,1,G1,397.90600,0.62640,109.13400,28,4,0,6,4,146,4,0,0,4,42.26,169.76949629737,0.00000225000,1166.82399172166
A-4376,4-methylpentan-2-one,"InChI=1S/C6H12O/c1-5(2)4-6(3)7/h5H,4H2,1-3H3",NTIZESTWPVYFNL-UHFFFAOYSA-N,CC(C)CC(C)=O,-0.85147953920,0.28531838345,4,G5,100.16100,1.62150,30.13600,7,1,0,1,2,42,0,0,0,0,17.07,44.72548369986,3.12600665239,64.58027134782
A-4377,2-methoxyaniline,"InChI=1S/C7H9NO/c1-9-7-5-3-2-4-6(7)8/h2-5H,8H2,1H3",VMPITZXILSNTON-UHFFFAOYSA-N,COc1ccccc1N,-0.94432401290,0.02288799355,2,G3,123.15500,1.27740,37.40640,9,2,1,2,1,48,1,0,0,1,35.25,54.24978116041,3.00652400733,197.86256853720
A-4379,{2-[2-(ethenyloxy)ethoxy]ethoxy}ethene,"InChI=1S/C8H14O3/c1-3-9-5-7-11-8-6-10-4-2/h3-4H,1-2,5-8H2",SAMJGBVVQUEMGC-UHFFFAOYSA-N,C=COCCOCCOC=C,-1.05307020770,0.00000000000,1,G1,158.19700,1.32320,43.11700,11,3,0,3,8,64,0,0,0,0,27.69,67.25527545276,2.78589970869,89.51029297452
A-4383,"trisodium 7-({4-chloro-6-[(3-sulfonatophenyl)amino]-1,3,5-triazin-2-yl}(methyl)amino)-4-hydroxy-3-[(E)-2-(2-sulfonatophenyl)diazen-1-yl]naphthalene-2-sulfonate","InChI=1S/C26H20ClN7O10S3.3Na/c1-34(26-30-24(27)29-25(31-26)28-15-5-4-6-17(13-15)45(36,37)38)16-9-10-18-14(11-16)12-21(47(42,43)44)22(23(18)35)33-32-19-7-2-3-8-20(19)46(39,40)41;;;/h2-13,32H,1H3,(H,36,37,38)(H,39,40,41)(H,42,43,44)(H,28,29,30,31);;;/q;3*+1/p-3/b33-22-;;;",HTXSZYABOIULBS-ZHMXUHHZSA-K,[Na+].[Na+].[Na+].CN(c1ccc2c(c1)C=C(/C(=N/Nc3ccccc3[S]([O-])(=O)=O)C2=O)[S]([O-])(=O)=O)c4nc(Cl)nc(Nc5cccc(c5)[S]([O-])(=O)=O)n4,-0.75202998720,0.00000000000,1,G1,788.08500,-6.59280,164.49750,50,17,2,24,9,244,4,0,1,5,267.00,356.70681783550,0.00000289000,2366.49767950457
A-4386,copper(2+) dinitrate,InChI=1S/Cu.2NO3/c;2*2-1(3)4/q+2;2*-1,XTVVROIMIGLXTD-UHFFFAOYSA-N,[Cu++].[O-][N+]([O-])=O.[O-][N+]([O-])=O,0.86612288670,0.00000000000,1,G1,187.55400,-0.48070,20.72280,9,6,0,9,0,57,0,0,0,0,132.40,58.77825628753,-0.00000007200,69.05865002596
A-4392,1H-pyrazole,"InChI=1S/C3H4N2/c1-2-4-5-3-1/h1-3H,(H,4,5)",WTKZEGDFNFYCGP-UHFFFAOYSA-N,[nH]1cccn1,1.28788964980,0.91654482490,2,G2,68.07900,0.40970,18.58770,5,1,1,2,0,26,1,0,0,1,28.68,29.82866508986,3.12500000000,61.36993061053
A-4393,[2-[[4-[(2-chloro-4-nitrophenyl)azo]phenyl]ethylamino]ethyl](2-hydroxypropyl)dimethylammonium acetate,"InChI=1S/C21H29ClN5O3.C2H4O2/c1-5-25(12-13-27(3,4)15-16(2)28)18-8-6-17(7-9-18)23-24-21-11-10-19(26(29)30)14-20(21)22;1-2(3)4/h6-11,14,16,28H,5,12-13,15H2,1-4H3;1H3,(H,3,4)/q+1;/p-1",XSFKEMHKDFPDNK-UHFFFAOYSA-M,CCN(CC[N+](C)(C)CC(C)O)c1ccc(cc1)N=Nc2ccc(cc2Cl)[N+]([O-])=O.CC([O-])=O,-0.57314598460,0.00000000000,1,G1,493.99200,3.70330,130.81560,34,8,1,11,10,186,2,0,0,2,131.46,204.39133996276,0.00000133450,976.21617675153
A-4394,[2-[[4-[(2-chloro-4-nitrophenyl)azo]phenyl]ethylamino]ethyl](2-hydroxypropyl)dimethylammonium chloride,"InChI=1S/C21H29ClN5O3.ClH/c1-5-25(12-13-27(3,4)15-16(2)28)18-8-6-17(7-9-18)23-24-21-11-10-19(26(29)30)14-20(21)22;/h6-11,14,16,28H,5,12-13,15H2,1-4H3;1H/q+1;/p-1",ACBFJDARQXVXLX-UHFFFAOYSA-M,[Cl-].CCN(CC[N+](C)(C)CC(C)O)c1ccc(cc1)N=Nc2ccc(cc2Cl)[N+]([O-])=O,-0.55189430510,0.00000000000,1,G1,470.40100,1.95110,120.13460,31,6,1,10,10,170,2,0,0,2,91.33,193.85296198075,0.00000480499,889.08398265498
A-4395,copper(2+) ion bis(5-oxopyrrolidine-2-carboxylate),"InChI=1S/2C5H7NO3.Cu/c2*7-4-2-1-3(6-4)5(8)9;/h2*3H,1-2H2,(H,6,7)(H,8,9);/q;;+2/p-2",CKBLQUOAMGLVCH-UHFFFAOYSA-L,[Cu++].[O-]C(=O)C1CCC(=O)N1.[O-]C(=O)C2CCC(=O)N2,-0.38425020400,0.00000000000,1,G1,319.76000,-3.97270,52.34340,19,6,2,9,2,109,0,2,2,2,138.46,118.94779944787,0.00000032400,350.21616690607
A-4396,disodium 3-[(E)-2-{3-methoxy-4-[({2-methoxy-4-[(E)-2-(3-sulfonatophenyl)diazen-1-yl]phenyl}carbamoyl)amino]phenyl}diazen-1-yl]benzene-1-sulfonate,"InChI=1S/C27H24N6O9S2.2Na/c1-41-25-15-19(32-30-17-5-3-7-21(13-17)43(35,36)37)9-11-23(25)28-27(34)29-24-12-10-20(16-26(24)42-2)33-31-18-6-4-8-22(14-18)44(38,39)40;;/h3-16H,1-2H3,(H2,28,29,34)(H,35,36,37)(H,38,39,40);;/q;2*+1/p-2",MFZGSFUTGDGCSC-UHFFFAOYSA-L,[Na+].[Na+].COc1cc(ccc1NC(=O)Nc2ccc(cc2OC)N=Nc3cccc(c3)[S]([O-])(=O)=O)N=Nc4cccc(c4)[S]([O-])(=O)=O,-0.71487565100,0.00000000000,1,G1,684.62000,-0.00520,155.79180,46,13,2,19,10,228,4,0,0,4,223.43,308.16347596164,0.00000368166,1852.39650211551
A-4400,1-hydroxypropan-2-yl 2-methylprop-2-enoate 2-hydroxypropyl 2-methylprop-2-enoate,"InChI=1S/C7H12O3/c1-5(2)7(9)10-6(3)4-8/h6,8H,1,4H2,2-3H3",ZMARGGQEAJXRFP-UHFFFAOYSA-N,CC(CO)OC(=O)C(C)=C,-0.04493154610,0.00000000000,1,G1,144.17000,0.48650,37.45380,10,3,1,3,3,58,0,0,0,0,46.53,60.30860176377,3.68320739275,139.78664559482
A-4401,"7-methyl-3,4-dihydro-2H-1,5-benzodioxepin-3-one","InChI=1S/C10H10O3/c1-7-2-3-9-10(4-7)13-6-8(11)5-12-9/h2-4H,5-6H2,1H3",SWUIQEBPZIHZQS-UHFFFAOYSA-N,Cc1ccc2OCC(=O)COc2c1,-1.11415544890,0.00000000000,1,G1,178.18700,1.33532,47.17600,13,3,0,3,0,68,1,0,1,2,35.53,76.27395298261,2.35047390214,344.02313678650
A-4402,"diethyl pyridine-2,4-dicarboxylate","InChI=1S/C11H13NO4/c1-3-15-10(13)8-5-6-12-9(7-8)11(14)16-4-2/h5-7H,3-4H2,1-2H3",MUUDQLHCIAOWPR-UHFFFAOYSA-N,CCOC(=O)c1ccnc(c1)C(=O)OCC,-1.21841489970,0.00000000000,1,G1,223.22800,1.43500,56.15000,16,5,0,5,4,86,1,0,0,1,65.49,93.39083844592,2.86001728555,356.07588186361
A-4404,"potassium sodium 4,4'-bis[6-anilino-4-[bis(2-hydroxyethyl)amino]-1,3,5-triazin-2-yl]amino]stilbene-2,2'-disulphonate","InChI=1S/C40H44N12O10S2.2K.2Na/c53-21-17-51(18-22-54)39-47-35(41-29-7-3-1-4-8-29)45-37(49-39)43-31-15-13-27(33(25-31)63(57,58)59)11-12-28-14-16-32(26-34(28)64(60,61)62)44-38-46-36(42-30-9-5-2-6-10-30)48-40(50-38)52(19-23-55)20-24-56;;;;/h1-16,25-26,53-56H,17-24H2,(H,57,58,59)(H,60,61,62)(H2,41,43,45,47,49)(H2,42,44,46,48,50);;;;/q;;;2*+1/p-2/b12-11+;;;;",DQMJISXEQAOPNR-MOSUJMLHSA-L,[Na+].[Na+].[K].[K].OCCN(CCO)c1nc(Nc2ccccc2)nc(Nc3ccc(\C=C\c4ccc(Nc5nc(Nc6ccccc6)nc(n5)N(CCO)CCO)cc4[S]([O-])(=O)=O)c(c3)[S]([O-])(=O)=O)n1,-1.88796013690,0.00000000000,1,G1,1039.16000,-4.16200,247.68440,68,22,8,28,22,338,6,0,0,6,327.26,521.81983188713,0.00000396749,2601.13665501199