ID,Name,InChI,InChIKey,SMILES,Solubility,SD,Ocurrences,Group,MolWt,MolLogP,MolMR,HeavyAtomCount,NumHAcceptors,NumHDonors,NumHeteroatoms,NumRotatableBonds,NumValenceElectrons,NumAromaticRings,NumSaturatedRings,NumAliphaticRings,RingCount,TPSA,LabuteASA,BalabanJ,BertzCT
A-3313,2-methyl-5-nitrobenzene-1-sulfonic acid,"InChI=1S/C7H7NO5S/c1-5-2-3-6(8(9)10)4-7(5)14(11,12)13/h2-4H,1H3,(H,11,12,13)",ZDTXQHVBLWYPHS-UHFFFAOYSA-N,Cc1ccc(cc1[S](O)(=O)=O)[N+]([O-])=O,0.49243995290,0.00000000000,1,G1,217.20200,1.14992,47.64800,14,4,1,7,2,76,1,0,0,1,97.51,80.07795696643,3.44293876801,478.85356353037
A-3314,chromium(3+) ion acetate dihydroxide,"InChI=1S/3C2H4O2.Cr/c3*1-2(3)4;/h3*1H3,(H,3,4);/q;;;+3/p-3",WYYQVWLEPYFFLP-UHFFFAOYSA-K,[Cr+3].CC([O-])=O.CC([O-])=O.CC([O-])=O,0.46922560860,0.00000000000,1,G1,229.12800,-3.73390,32.04300,13,6,0,7,0,75,0,0,0,0,120.39,86.31640445558,-0.00000004500,114.67414136612
A-3316,(2R)-2-(2-chlorophenyl)-2-hydroxyacetic acid,"InChI=1S/C8H7ClO3/c9-6-4-2-1-3-5(6)7(10)8(11)12/h1-4,7,10H,(H,11,12)/t7-/m1/s1",RWOLDZZTBNYTMS-SSDOTTSWSA-N,O[C@@H](C(O)=O)c1ccccc1Cl,-0.43902790050,0.00000000000,1,G1,186.59400,1.45800,44.04760,12,2,2,4,2,64,1,0,0,1,57.53,74.21454317961,3.02279109186,298.10937643443
A-3318,disodium 6-hydroxy-5-[(E)-2-{4-[(E)-2-[4-(phenylamino)-3-sulfonatophenyl]diazen-1-yl]naphthalen-1-yl}diazen-1-yl]naphthalene-2-sulfonate,"InChI=1S/C32H23N5O7S2.2Na/c38-30-17-10-20-18-23(45(39,40)41)12-13-24(20)32(30)37-36-28-16-15-27(25-8-4-5-9-26(25)28)35-34-22-11-14-29(31(19-22)46(42,43)44)33-21-6-2-1-3-7-21;;/h1-19,33,36H,(H,39,40,41)(H,42,43,44);;/q;2*+1/p-2/b35-34?,37-32+;;",IQEHCFKNGZTEDA-LAEQOQJSSA-L,[Na+].[Na+].[O-][S](=O)(=O)c1ccc2c(C=CC(=O)/C2=N/Nc3ccc(N=Nc4ccc(Nc5ccccc5)c(c4)[S]([O-])(=O)=O)c6ccccc36)c1,-1.01563000440,0.06986003380,2,G3,697.66200,0.22710,170.85980,48,12,2,16,8,230,5,0,1,6,192.61,319.70623862465,0.00000260100,2350.23581370617
A-3319,caesium(1+) ion iodide,InChI=1S/Cs.HI/h;1H/q+1;/p-1,XQPRBTXUXXVTKB-UHFFFAOYSA-M,[I-].[Cs+],0.41122610760,0.00000000000,1,G1,259.80900,-5.99200,0.00000,2,0,0,2,0,8,0,0,0,0,0.00,89.81705932153,0.00000000000,2.00000000000
A-3320,"1-ethenyl-3-methyl-2,3-dihydro-1H-imidazol-1-ium chloride","InChI=1S/C6H10N2.ClH/c1-3-8-5-4-7(2)6-8;/h3-5H,1,6H2,2H3;1H",QARDSQYLYGISQN-UHFFFAOYSA-N,[Cl-].CN1C[NH+](C=C)C=C1,0.65858028530,0.00000000000,1,G1,146.62100,-3.60710,32.92970,9,1,1,3,1,52,0,0,1,1,7.68,61.85168497487,0.00000064000,122.22626787691
A-3325,2-amino-3-sulfanylpropanoic acid hydrochloride,"InChI=1S/C3H7NO2S.ClH/c4-2(1-7)3(5)6;/h2,7H,1,4H2,(H,5,6);1H/t2-;/m0./s1",IFQSXNOEEPCSLW-DKWTVANSSA-N,[Cl-].N[C@@H](CS)C(O)=O.[H+],0.62192710180,0.03201350449,3,G5,157.62200,-3.55540,30.57620,8,3,3,5,2,50,0,0,0,0,63.32,60.55774009132,-0.00000018000,84.21299940856
A-3326,Ruthenium(3+) heptaacetate,"InChI=1S/7C2H4O2.3Ru/c7*1-2(3)4;;;/h7*1H3,(H,3,4);;;/q;;;;;;;3*+3/p-7",YLYBKNICSPYRDA-UHFFFAOYSA-G,[Ru+3].[Ru+3].[Ru+3].CC([O-])=O.CC([O-])=O.CC([O-])=O.CC([O-])=O.CC([O-])=O.CC([O-])=O.CC([O-])=O,-0.03568316950,0.00000000000,1,G1,716.51800,-8.71410,74.76700,31,14,0,17,0,183,0,0,0,0,280.91,216.85876052953,-0.00000002042,321.26501708921
A-3328,butan-1-ol,"InChI=1S/C4H10O/c1-2-3-4-5/h5H,2-4H2,1H3",LRHPLDYGYMQRHN-UHFFFAOYSA-N,CCCCO,-0.05040905280,0.02890133126,3,G5,74.12300,0.77880,21.99380,5,1,1,1,2,32,0,0,0,0,20.23,32.62831112322,2.19060968716,11.11941547876
A-3329,disodium dioxomolybdenumbis(olate),InChI=1S/Mo.2Na.4O/q;2*+1;;;2*-1,TVXXNOYZHKPKGW-UHFFFAOYSA-N,[Na+].[Na+].[O-][Mo]([O-])(=O)=O,0.50202044650,0.00000000000,1,G1,205.91600,-8.61010,1.37300,7,4,0,7,0,32,0,0,0,0,80.26,88.59776630628,-0.00000008000,92.85820232266
A-3330,iron(3+) chloride sulfate,"InChI=1S/Cl.Fe.H2O4S/c;;1-5(2,3)4/h;;(H2,1,2,3,4)/p-2",NGYBMUURDZXEEA-UHFFFAOYSA-L,[Cl].[Fe].[O-][S]([O-])(=O)=O,0.54023416100,0.37888686489,8,G5,187.36100,-0.65100,16.32760,7,4,0,7,0,47,0,0,0,0,80.26,57.75489607650,-0.00000008000,94.85820232266
A-3331,iron(3+) ion trichloride,InChI=1S/3ClH.Fe/h3*1H;/q;;;+3/p-3,RBTARNINKXHZNM-UHFFFAOYSA-K,[Cl-].[Cl-].[Cl-].[Fe+3],0.60285179680,0.37888686487,8,G5,162.20400,-8.99050,0.00000,4,0,0,4,0,29,0,0,0,0,0.00,54.42337778977,0.00000000000,3.24511249784
A-3333,iron(+2) cation sulfate,"InChI=1S/Fe.H2O4S/c;1-5(2,3)4/h;(H2,1,2,3,4)/q+2;/p-2",BAUYGSIQEAFULO-UHFFFAOYSA-L,[Fe++].[O-][S]([O-])(=O)=O,0.63133271070,0.37888686489,8,G5,151.90800,-1.34050,10.47460,6,4,0,6,0,38,0,0,0,0,80.26,45.60180282395,0.00000000000,90.71649287258
A-3335,sodium 3-({3-methoxy-4-[(4-methoxyphenyl)diazenyl]phenyl}diazenyl)benzenesulfonate,"InChI=1S/C20H18N4O5S.Na/c1-28-17-9-6-14(7-10-17)21-24-19-11-8-16(13-20(19)29-2)23-22-15-4-3-5-18(12-15)30(25,26)27;/h3-13H,1-2H3,(H,25,26,27);/q;+1/p-1",JGUAUYIJLLJIQS-UHFFFAOYSA-M,[Na+].COc1ccc(cc1)N=Nc2ccc(cc2OC)N=Nc3cccc(c3)[S]([O-])(=O)=O,-0.83545917010,0.09187935000,2,G3,448.43600,2.44270,108.74520,31,9,0,11,7,154,3,0,0,3,125.10,201.43815754116,0.00000341333,1198.44700051386
A-3337,Pyrithione sodium,InChI=1S/C5H4NOS.Na/c7-6-4-2-1-3-5(6)8;/h1-4H;/q-1;+1,XNRNJIIJLOFJEK-UHFFFAOYSA-N,[Na+].[O-]N1C=CC=CC1=S,0.63701244260,0.02355941090,2,G3,149.15000,-1.43251,34.03100,9,3,0,4,0,42,1,0,0,1,27.99,80.38147470863,0.00000064000,234.39964603590
A-3339,"sodium (2R)-2-[(1S)-1,2-dihydroxyethyl]-4-hydroxy-5-oxo-2,5-dihydrofuran-3-olate","InChI=1S/C6H7O6.Na/c7-1-2(8)5-3(9)4(10)6(11)12-5;/h2,5,7-8,10H,1H2;/q-1;+1/t2-,5?;/m0./s1",IFVCRSPJFHGFCG-HXPAKLQESA-N,[Na+].OC[C@H](O)C1OC(=O)[C-](O)C1=O,0.51104309210,0.10294036495,2,G3,198.10600,-5.25741,33.15840,13,6,3,7,2,68,0,1,1,1,104.06,95.79082075518,0.00000144000,217.17001630580
A-3340,nickel(2+) ion dichloride,InChI=1S/2ClH.Ni/h2*1H;/q;;+2/p-2,QMMRZOWCJAIUJA-UHFFFAOYSA-L,[Cl-].[Cl-].[Ni++],0.69493337760,0.29864934425,2,G3,129.59900,-5.99450,0.00000,3,0,0,3,0,24,0,0,0,0,0.00,41.72141688471,0.00000000000,2.75488750216
A-3342,"sodium (Z)-N-({3-[(4-amino-9,10-dioxo-3-sulfo-9,10-dihydroanthracen-1-yl)amino]-5-{[(Z)-(2-chloro-1-hydroxyethylidene)amino]methyl}-2,4,6-trimethylphenyl}methyl)-2-chloroethenecarboximidate","InChI=1S/C29H28Cl2N4O7S.Na/c1-13-18(11-33-22(36)9-30)14(2)27(15(3)19(13)12-34-23(37)10-31)35-20-8-21(43(40,41)42)26(32)25-24(20)28(38)16-6-4-5-7-17(16)29(25)39;/h4-8,35H,9-12,32H2,1-3H3,(H,33,36)(H,34,37)(H,40,41,42);/q;+1/p-1",HVDUMYBPGXAPLG-UHFFFAOYSA-M,[Na+].Cc1c(CNC(=O)CCl)c(C)c(Nc2cc(c(N)c3C(=O)c4ccccc4C(=O)c23)[S]([O-])(=O)=O)c(C)c1CNC(=O)CCl,-1.01755193330,0.00000000000,1,G1,669.51900,0.33116,161.19370,44,9,4,15,9,226,3,0,1,4,187.59,285.83825737099,0.00000528999,1783.75233569469
A-3344,3-methylbut-2-en-1-ol,"InChI=1S/C5H10O/c1-5(2)3-4-6/h3,6H,4H2,1-2H3",ASUAYTHWZCLXAN-UHFFFAOYSA-N,CC(C)=CCO,-0.12899464200,0.00000000000,1,G1,86.13400,0.94490,26.51680,6,1,1,1,1,36,0,0,0,0,20.23,38.30365020543,3.13742987864,50.95878455585
A-3345,calcium disulfamate,"InChI=1S/Ca.2H3NO3S/c;2*1-5(2,3)4/h;2*(H3,1,2,3,4)/q+2;;/p-2",RSIPQRDGPVEGLE-UHFFFAOYSA-L,[Ca++].N[S]([O-])(=O)=O.N[S]([O-])(=O)=O,0.43886121620,0.00000000000,1,G1,232.25200,-3.57020,33.52320,11,6,2,11,0,64,0,0,0,0,166.44,93.70371649755,-0.00000010667,214.95740853719
A-3346,"hexane-1,6-diamine",InChI=1S/C6H16N2/c7-5-3-1-2-4-6-8/h1-8H2,NAQMVNRVTILPCV-UHFFFAOYSA-N,NCCCCCCN,0.73890340550,0.09804829725,2,G3,116.20800,0.46420,36.57680,8,2,2,2,5,50,0,0,0,0,52.04,51.24374299384,2.53006045688,31.50977500433
A-3347,sodium hydroxymethanesulfinate,"InChI=1S/CH4O3S.Na/c2-1-5(3)4;/h2H,1H2,(H,3,4);/q;+1/p-1",XWGJFPHUCFXLBL-UHFFFAOYSA-M,[Na+].OC[S]([O-])=O,0.73152072600,0.09813491455,2,G3,118.08900,-4.18070,16.00560,6,3,1,5,1,32,0,0,0,0,60.36,60.32437623457,0.00000000000,46.05785641097
A-3348,1H-imidazole,"InChI=1S/C3H4N2/c1-2-5-3-4-1/h1-3H,(H,4,5)",RAXXELZNTBOGNW-UHFFFAOYSA-N,[nH]1ccnc1,0.96839054220,0.01005490920,2,G3,68.07900,0.40970,18.58770,5,1,1,2,0,26,1,0,0,1,28.68,29.86021152146,3.12500000000,61.36993061053
A-3349,sodium hydrogen (2S)-2-aminobutanedioate,"InChI=1S/C4H7NO4.Na/c5-2(4(8)9)1-3(6)7;/h2H,1,5H2,(H,6,7)(H,8,9);/q;+1/p-1/t2-;/m0./s1",WTWSHHITWMVLBX-DKWTVANSSA-M,[Na+].N[C@@H](CC(O)=O)C([O-])=O,0.60992733230,0.00000000000,1,G1,155.08500,-5.45770,25.23520,10,4,2,6,3,52,0,0,0,0,103.45,79.49887939522,0.00000000000,137.21928094887
A-3352,manganese bis(dihydrogen phosphate),"InChI=1S/Mn.2H3O4P/c;2*1-5(2,3)4/h;2*(H3,1,2,3,4)/q+2;;/p-6",NAAXGLXYRDSIRS-UHFFFAOYSA-H,[Mn++].[O-][P]([O-])([O-])=O.[O-][P]([O-])([O-])=O,0.41039077990,0.00000000000,1,G1,244.87800,-5.65170,15.21300,11,8,0,11,0,69,0,0,0,0,172.50,71.84038420131,-0.00000010667,124.40154658752
A-3353,"1,1-dimethylpropyl hydroperoxide","InChI=1S/C5H12O2/c1-4-5(2,3)7-6/h6H,4H2,1-3H3",XRXANEMIFVRKLN-UHFFFAOYSA-N,CCC(C)(C)OO,-0.21659457450,0.00000000000,1,G1,104.14900,1.66460,28.08380,7,2,1,2,2,44,0,0,0,0,29.46,44.03609378286,3.36043514270,44.04184397997
A-3354,2-phenylethan-1-amine,"InChI=1S/C8H11N/c9-7-6-8-4-2-1-3-5-8/h1-5H,6-7,9H2",BHHGXPLMPWCGHP-UHFFFAOYSA-N,NCCc1ccccc1,-0.28238116980,0.00000000000,1,G1,121.18300,1.18780,39.20040,9,1,1,1,2,48,1,0,0,1,26.02,55.50117804530,2.61489994009,157.47842076562
A-3357,"4-hydroxy-2,2,6,6-tetramethylpiperidinoxyl","InChI=1S/C9H18NO2/c1-8(2)5-7(11)6-9(3,4)10(8)12/h7,11H,5-6H2,1-4H3",UZFMOKQJFYMBGY-UHFFFAOYSA-N,CC1(C)CC(O)CC(C)(C)N1[O],0.56270354380,0.00000000000,1,G1,172.24800,1.34580,45.92430,12,2,1,3,0,71,0,1,1,1,43.37,73.95529646355,2.83552189030,159.36734879117
A-3358,sodium 4(or 5)-methyl-1H-benzotriazolide,"InChI=1S/C7H6N3.Na/c1-5-3-2-4-6-7(5)9-10-8-6;/h2-4H,1H3;/q-1;+1",REERYFLJRPUSHT-UHFFFAOYSA-N,[Na+].Cc1cccc2n[n-]nc12,0.60516742790,0.00000000000,1,G1,155.13600,-2.10058,37.59500,11,2,0,4,0,50,2,0,0,2,39.88,86.47677290806,0.00000060500,355.21317278023
A-3360,"oxolane-2,5-dione",InChI=1S/C4H4O3/c5-3-1-2-4(6)7-3/h1-2H2,RINCXYDBBGOEEQ-UHFFFAOYSA-N,O=C1CCC(=O)O1,-0.20166627390,0.00000000000,1,G1,100.07300,-0.15000,20.33300,7,3,0,3,0,38,0,1,1,1,43.37,40.26483564708,2.55370502721,102.10331482050
A-3364,calcium dipropanoate,"InChI=1S/2C3H6O2.Ca/c2*1-2-3(4)5;/h2*2H2,1H3,(H,4,5);/q;;+2/p-2",BCZXFFBUYPCTSJ-UHFFFAOYSA-L,[Ca++].CCC([O-])=O.CCC([O-])=O,-0.47693472210,0.33390312125,2,G3,186.22000,-2.08820,36.35000,11,4,0,5,2,60,0,0,0,0,80.26,95.59707245305,-0.00000010667,99.14991061830
A-3365,"2,2-bis(hydroxymethyl)propane-1,3-diol","InChI=1S/C5H12O4/c6-1-5(2-7,3-8)4-9/h6-9H,1-4H2",WXZMFSXDPGVJKK-UHFFFAOYSA-N,OCC(CO)(CO)CO,-0.34161638660,0.06781381507,3,G5,136.14700,-2.05800,30.77620,9,4,4,4,4,56,0,0,0,0,80.92,53.37595449420,3.82468420321,51.84847143196
A-3367,2-methylpropanoic anhydride,"InChI=1S/C8H14O3/c1-5(2)7(9)11-8(10)6(3)4/h5-6H,1-4H3",LSACYLWPPQLVSM-UHFFFAOYSA-N,CC(C)C(=O)OC(=O)C(C)C,0.59179023170,0.00000000000,1,G1,158.19700,1.36820,40.77500,11,3,0,3,2,64,0,0,0,0,43.37,66.73043525820,3.86241011502,140.72010581370
A-3369,sodium (2S)-5-oxopyrrolidine-2-carboxylate,"InChI=1S/C5H7NO3.Na/c7-4-2-1-3(6-4)5(8)9;/h3H,1-2H2,(H,6,7)(H,8,9);/q;+1/p-1/t3-;/m0./s1",CRPCXAMJWCDHFM-DFWYDOINSA-M,[Na+].[O-]C(=O)[C@@H]1CCC(=O)N1,0.60820463290,0.00000000000,1,G1,151.09700,-4.98110,26.17170,10,3,1,5,1,50,0,1,1,1,69.23,80.27372809049,0.00000081000,158.97205302420
A-3370,"disodium 3-{[ethyl({4-[(4-{ethyl[(3-sulfonatophenyl)methyl]iminiumyl}cyclohexa-2,5-dien-1-ylidene)(2-sulfonatophenyl)methyl]phenyl})amino]methyl}benzene-1-sulfonate","InChI=1S/C37H36N2O9S3.2Na/c1-3-38(25-27-9-7-11-33(23-27)49(40,41)42)31-19-15-29(16-20-31)37(35-13-5-6-14-36(35)51(46,47)48)30-17-21-32(22-18-30)39(4-2)26-28-10-8-12-34(24-28)50(43,44)45;;/h5-24H,3-4,25-26H2,1-2H3,(H2-,40,41,42,43,44,45,46,47,48);;/q;2*+1/p-2",SGHZXLIDFTYFHQ-UHFFFAOYSA-L,[Na+].[Na+].CCN(Cc1cccc(c1)[S]([O-])(=O)=O)c2ccc(cc2)[C+](c3ccc(cc3)N(CC)Cc4cccc(c4)[S]([O-])(=O)=O)c5ccccc5[S]([O-])(=O)=O,-0.11315803670,0.00000000000,1,G1,792.86500,-0.52091,190.09660,53,11,0,16,14,266,5,0,0,5,178.08,355.44674936048,0.00000378124,2213.19073051638
A-3371,disodium phosphonate,"InChI=1S/2Na.HO3P/c;;1-4(2)3/h;;(H,1,2,3)/q2*+1;/p-1",IIRVGTWONXBBAW-UHFFFAOYSA-M,[Na+].[Na+].[O-][P](=O)=O,0.68930147400,0.00000000000,1,G1,124.95100,-6.55740,8.29300,6,3,0,6,0,24,0,0,0,0,57.20,79.99173642950,-0.00000004500,57.19344939991
A-3372,"2,2,4,4-tetramethylcyclobutane-1,3-diol","InChI=1S/C8H16O2/c1-7(2)5(9)8(3,4)6(7)10/h5-6,9-10H,1-4H3",FQXGHZNSUOHCLO-UHFFFAOYSA-N,CC1(C)C(O)C(C)(C)C1O,-0.37367758780,0.00000000000,1,G1,144.21400,0.77420,39.57560,10,2,2,2,0,60,0,1,1,1,40.46,61.87648217947,2.78093108924,119.33658100080
A-3373,"tripotassium 2-hydroxypropane-1,2,3-tricarboxylate","InChI=1S/C6H8O7.3K/c7-3(8)1-6(13,5(11)12)2-4(9)10;;;/h13H,1-2H2,(H,7,8)(H,9,10)(H,11,12);;;/q;3*+1/p-3",QEEAPRPFLLJWCF-UHFFFAOYSA-K,[K+].[K+].[K+].OC(CC([O-])=O)(CC([O-])=O)C([O-])=O,0.29619378520,0.20252404835,2,G3,306.39300,-14.24060,29.20480,16,7,1,10,5,74,0,0,0,0,140.62,218.99315699482,-0.00000024000,238.50671838244
A-3374,"1,4-bis({3-[2-(2-hydroxyethoxy)ethoxy]propyl}amino)-9,10-dihydroanthracene-9,10-dione","InChI=1S/C28H38N2O8/c31-11-15-37-19-17-35-13-3-9-29-23-7-8-24(30-10-4-14-36-18-20-38-16-12-32)26-25(23)27(33)21-5-1-2-6-22(21)28(26)34/h1-2,5-8,29-32H,3-4,9-20H2",FRFQXYOWMSJIJR-UHFFFAOYSA-N,OCCOCCOCCCNc1ccc(NCCCOCCOCCO)c2C(=O)c3ccccc3C(=O)c12,0.05718869560,0.10901466305,2,G3,530.61800,2.11700,143.41000,38,10,4,10,20,208,2,0,1,3,135.58,222.78715699210,1.59569252644,949.90836552774
A-3375,acetic acid,"InChI=1S/C2H4O2/c1-2(3)4/h1H3,(H,3,4)",QTBSBXVTEAMEQO-UHFFFAOYSA-N,CC(O)=O,1.00171780790,0.10989109605,2,G3,60.05200,0.09090,13.30980,4,1,1,2,0,24,0,0,0,0,37.30,24.05994899447,2.80303948767,27.01955000865
A-3376,2-oxopentanedioic acid,"InChI=1S/C5H6O5/c6-3(5(9)10)1-2-4(7)8/h1-2H2,(H,7,8)(H,9,10)",KPGXRSRHYNQIFN-UHFFFAOYSA-N,OC(=O)CCC(=O)C(O)=O,0.61488007260,0.00000000000,1,G1,146.09800,-0.49510,29.51260,10,3,2,5,4,56,0,0,0,0,91.67,56.27205328994,3.60415682153,170.87712379549
A-3377,disodium 3-[(3-sulfonatopropyl)disulfanyl]propane-1-sulfonate,"InChI=1S/C6H14O6S4.2Na/c7-15(8,9)5-1-3-13-14-4-2-6-16(10,11)12;;/h1-6H2,(H,7,8,9)(H,10,11,12);;/q;2*+1/p-2",WIYCQLLGDNXIBA-UHFFFAOYSA-L,[Na+].[Na+].[O-][S](=O)(=O)CCCSSCCC[S]([O-])(=O)=O,0.22865263550,0.00000000000,1,G1,354.40400,-5.75360,63.27840,18,8,0,12,9,98,0,0,0,0,114.40,160.29421500240,-0.00000112500,342.88159103902
A-3379,2-methylprop-2-enal,"InChI=1S/C4H6O/c1-4(2)3-5/h3H,1H2,2H3",STNJBCKSHOAVAJ-UHFFFAOYSA-N,CC(=C)C=O,-0.06751100580,0.05077152666,4,G5,70.09100,0.76140,20.87800,5,1,0,1,1,28,0,0,0,0,17.07,31.30599643888,3.20480541789,54.66829050040
A-3380,2-methylpropanal,"InChI=1S/C4H8O/c1-4(2)3-5/h3-4H,1-2H3",AMIMRNSIRUDHCM-UHFFFAOYSA-N,CC(C)C=O,-0.07982617680,0.08561308840,2,G3,72.10700,0.84130,20.90200,5,1,0,1,1,30,0,0,0,0,17.07,31.99559947106,2.82574936875,30.62919048309
A-3381,"O,O-diisopropyl hydrogen dithiophosphate","InChI=1S/C6H15O2PS2/c1-5(2)7-9(10,11)8-6(3)4/h5-6H,1-4H3,(H,10,11)",SZXCCXFNQHQRGF-UHFFFAOYSA-N,CC(C)O[P](S)(=S)OC(C)C,-0.55285470780,0.00000000000,1,G1,214.29200,2.99070,55.71300,11,3,1,5,4,68,0,0,0,0,18.46,78.98796119043,3.90783609524,144.66127285261
A-3385,"N,2,3-trimethyl-2-(propan-2-yl)butanamide","InChI=1S/C10H21NO/c1-7(2)10(5,8(3)4)9(12)11-6/h7-8H,1-6H3,(H,11,12)",RWAXQWRDVUOOGG-UHFFFAOYSA-N,CNC(=O)C(C)(C(C)C)C(C)C,-1.39486770580,0.00000000000,1,G1,171.28400,2.05070,51.84970,12,1,1,2,3,72,0,0,0,0,29.10,75.73511434105,4.74009964133,153.22151457064
A-3387,carbonyl dichloride,InChI=1S/CCl2O/c2-1(3)4,YGYAWVDWMABLBF-UHFFFAOYSA-N,ClC(Cl)=O,-1.16084584220,0.00000000000,1,G1,98.91600,1.58400,17.10200,4,1,0,3,0,24,0,0,0,0,17.07,33.50730558164,2.80303948767,29.01955000865
A-3389,2-[1-(carboxymethyl)cyclohexyl]acetic acid,"InChI=1S/C10H16O4/c11-8(12)6-10(7-9(13)14)4-2-1-3-5-10/h1-7H2,(H,11,12)(H,13,14)",YQPCHPBGAALCRT-UHFFFAOYSA-N,OC(=O)CC1(CCCCC1)CC(O)=O,-1.47223405040,0.21568775308,3,G5,200.23400,1.88630,50.02360,14,2,2,4,4,80,0,1,1,1,74.60,82.92941060835,2.65687684635,210.27649744867
A-3390,strontium,InChI=1S/Sr,CIOAGBVUUVVLOB-UHFFFAOYSA-N,[Sr],-1.11394335230,0.00000000000,1,G1,87.62000,-0.38080,5.75400,1,0,0,1,0,2,0,0,0,0,0.00,44.75647354470,0.00000000000,0.00000000000
A-3391,(2S)-5-amino-2-[(2-aminoacetyl)amino]-5-oxopentanoic acid,"InChI=1S/C7H13N3O4/c8-3-6(12)10-4(7(13)14)1-2-5(9)11/h4H,1-3,8H2,(H2,9,11)(H,10,12)(H,13,14)/t4-/m0/s1",PNMUAGGSDZXTHX-BYPYZUCNSA-N,NC(=O)CC[C@H](NC(=O)C[NH3+])C([O-])=O,-0.19431027800,0.00000000000,1,G1,203.19800,-4.27150,43.12120,14,4,3,7,6,80,0,0,0,0,139.96,80.43734734417,4.08993931486,241.08940644098
A-3392,"3,10-diamino-2-{[6-(4-tert-butylbenzenesulfonamido)naphthalen-2-yl]sulfonyl}-6,13-dichloro-5,12-dioxa-7,14-diazapentacene-4,11-disulfonic acid lithium potassium sodium","InChI=1S/C38H29Cl2N5O12S4.K.Li.Na/c1-38(2,3)19-6-10-21(11-7-19)59(48,49)45-20-8-4-18-15-22(9-5-17(18)14-20)58(46,47)26-16-25-33(37(29(26)42)61(53,54)55)57-35-27(39)30-34(28(40)31(35)44-25)56-32-24(43-30)13-12-23(41)36(32)60(50,51)52;;;/h4-16,45H,41-42H2,1-3H3,(H,50,51,52)(H,53,54,55);;;",PDTCPVSOIVGWMZ-UHFFFAOYSA-N,[Li].[Na].[K].CC(C)(C)c1ccc(cc1)[S](=O)(=O)Nc2ccc3cc(ccc3c2)[S](=O)(=O)c4cc5N=C6C(=C7Oc8c(ccc(N)c8[S](O)(=O)=O)N=C7C(=C6Oc5c(c4N)[S](O)(=O)=O)Cl)Cl,-2.18076589760,0.00000000000,1,G1,1015.87600,5.70710,242.19230,64,14,5,26,7,319,6,0,2,8,284.27,452.92043822644,0.00000256889,3587.14750875278
A-3393,(methylsulfanyl)ethane,"InChI=1S/C3H8S/c1-3-4-2/h3H2,1-2H3",WXEHBUMAEPOYKP-UHFFFAOYSA-N,CCSC,-1.05697328190,0.00000000000,1,G1,76.16400,1.36930,24.05600,4,1,0,1,1,26,0,0,0,0,0.00,31.59224528199,1.97474487139,5.24511249784
A-3397,benzaldehyde,InChI=1S/C7H6O/c8-6-7-4-2-1-3-5-7/h1-6H,HUMNYLRZRPPJDN-UHFFFAOYSA-N,O=Cc1ccccc1,-1.20957231090,0.16626302560,3,G5,106.12400,1.49910,31.82950,8,1,0,1,1,40,1,0,0,1,17.07,47.95786733394,2.99104691468,167.00151696676
A-3398,2-hydroperoxy-2-(2-hydroperoxybutan-2-ylperoxy)butane,"InChI=1S/C8H18O6/c1-5-7(3,11-9)13-14-8(4,6-2)12-10/h9-10H,5-6H2,1-4H3",WFUGQJXVXHBTEM-UHFFFAOYSA-N,CCC(C)(OO)OOC(C)(CC)OO,-1.50777324570,0.00000000000,1,G1,210.22600,2.16620,46.98960,14,6,2,6,7,86,0,0,0,0,77.38,83.12438019824,4.13703891526,133.91049395640
A-3399,2-(methylamino)-1-phenylpropan-1-ol,"InChI=1S/C10H15NO/c1-8(11-2)10(12)9-6-4-3-5-7-9/h3-8,10-12H,1-2H3/t8-,10+/m0/s1",KWGRBVOPPLSCSI-WCBMZHEXSA-N,CN[C@@H](C)[C@@H](O)c1ccccc1,-1.40519131650,0.00000000000,1,G1,165.23600,1.32790,49.92350,12,2,2,2,3,66,1,0,0,1,32.26,73.23526751289,2.71104072323,222.54000556146
A-3401,ethyl 2-methylpropanoate,"InChI=1S/C6H12O2/c1-4-8-6(7)5(2)3/h5H,4H2,1-3H3",WDAXFOBOLVPGLV-UHFFFAOYSA-N,CCOC(=O)C(C)C,-1.25549688870,0.00000000000,1,G1,116.16000,1.20550,31.47100,8,2,0,2,2,48,0,0,0,0,26.30,49.83902892936,3.32915003718,76.59772060569
A-3402,sulfanylidenestrontium,InChI=1S/S.Sr,XXCMBPUMZXRBTN-UHFFFAOYSA-N,S=[Sr],0.00366028870,0.00000000000,1,G1,119.68700,0.26740,13.34500,2,1,0,2,0,8,0,0,0,0,0.00,44.55367974052,2.00000000000,2.00000000000
A-3403,"1,3-dihydro-2-benzofuran-1,3-dione",InChI=1S/C8H4O3/c9-7-5-3-1-2-4-6(5)8(10)11-7/h1-4H,LGRFSURHDFAFJT-UHFFFAOYSA-N,O=C1OC(=O)c2ccccc12,-1.36442493320,0.18286240988,4,G5,148.11700,0.99720,36.18800,11,3,0,3,0,54,1,0,1,2,43.37,62.59204562436,2.69467725516,307.94533670671
A-3404,"(E)-1,2-dichloroethene",InChI=1S/C2H2Cl2/c3-1-2-4/h1-2H/b2-1+,KFUSEUYYWQURPO-OWOJBTEDSA-N,Cl\C=C\Cl,-1.18718038570,0.12760980715,2,G3,96.94400,1.93520,20.84600,4,0,0,2,0,24,0,0,0,0,0.00,35.02112256381,2.54919333848,19.21928094887
A-3407,quinoline,InChI=1S/C9H7N/c1-2-6-9-8(4-1)5-3-7-10-9/h1-7H,SMWDFEZZVXVKRB-UHFFFAOYSA-N,c1ccc2ncccc2c1,-1.32509355100,0.01343607320,2,G3,129.16200,2.23480,41.74300,10,1,0,1,0,48,2,0,0,2,12.89,59.33271563218,2.88805160166,275.70513834495
A-3409,1-phenylethan-1-one; 2-phenylpropan-2-ol; phenol,"InChI=1S/C9H12O.C8H8O.C6H6O/c1-9(2,10)8-6-4-3-5-7-8;1-7(9)8-5-3-2-4-6-8;7-6-4-2-1-3-5-6/h3-7,10H,1-2H3;2-6H,1H3;1-5,7H",UJAOROLGXQHBAO-UHFFFAOYSA-N,CC(=O)c1ccccc1.CC(C)(O)c2ccccc2.Oc3ccccc3,-1.75930614320,0.00000000000,1,G1,350.45800,5.19540,106.24010,26,3,2,3,2,136,3,0,0,3,57.53,155.13195401510,0.00000019797,745.72107296665