ID,Name,InChI,InChIKey,SMILES,Solubility,SD,Ocurrences,Group,MolWt,MolLogP,MolMR,HeavyAtomCount,NumHAcceptors,NumHDonors,NumHeteroatoms,NumRotatableBonds,NumValenceElectrons,NumAromaticRings,NumSaturatedRings,NumAliphaticRings,RingCount,TPSA,LabuteASA,BalabanJ,BertzCT
A-1205,1-chloro-3-nitrobenzene,InChI=1S/C6H4ClNO2/c7-5-2-1-3-6(4-5)8(9)10/h1-4H,KMAQZIILEGKYQZ-UHFFFAOYSA-N,[O-][N+](=O)c1cccc(Cl)c1,-2.76127229950,0.07745098000,2,G3,157.55600,2.24820,38.10640,10,2,0,4,1,52,1,0,0,1,43.14,62.38764506888,3.06989926576,261.67965837656
A-1206,1-(2-naphthyl)ethanone,"InChI=1S/C12H10O/c1-9(13)11-7-6-10-4-2-3-5-12(10)8-11/h2-8H,1H3",XSAYZAUNJMRRIR-UHFFFAOYSA-N,CC(=O)c1ccc2ccccc2c1,-2.79641871920,0.00000000000,1,G1,170.21100,3.04240,53.95250,13,1,0,1,1,64,2,0,0,2,17.07,77.00447398007,2.68603466388,457.38605952871
A-1207,"disodium 4-amino-6-{2-[4-({4-[2-(2,4-diaminophenyl)diazen-1-yl]phenyl}sulfamoyl)phenyl]diazen-1-yl}-5-hydroxy-3-[2-(4-nitrophenyl)diazen-1-yl]naphthalene-2,7-disulfonate","InChI=1S/C34H27N11O11S3.2Na/c35-19-1-14-27(26(36)17-19)41-38-20-2-4-23(5-3-20)44-57(49,50)25-12-8-22(9-13-25)40-43-33-29(59(54,55)56)16-18-15-28(58(51,52)53)32(31(37)30(18)34(33)46)42-39-21-6-10-24(11-7-21)45(47)48;;/h1-17,44,46H,35-37H2,(H,51,52,53)(H,54,55,56);;/q;2*+1/p-2",UMXKOPCQCFDBHS-UHFFFAOYSA-L,[Na+].[Na+].Nc1ccc(N=Nc2ccc(N[S](=O)(=O)c3ccc(cc3)N=Nc4c(O)c5c(N)c(N=Nc6ccc(cc6)[N+]([O-])=O)c(cc5cc4[S]([O-])(=O)=O)[S]([O-])(=O)=O)cc2)c(N)c1,-0.52567862070,0.00000000000,1,G1,905.82100,1.06340,210.53530,61,20,5,27,12,302,6,0,0,6,376.16,389.54336891622,0.00000409599,3103.84129894306
A-1209,"1,2-dichloropropane","InChI=1S/C3H6Cl2/c1-3(5)2-4/h3H,2H2,1H3",KNKRKFALVUDBJE-UHFFFAOYSA-N,CC(Cl)CCl,-1.62166471340,0.00789713360,2,G3,112.98700,1.85250,26.03500,5,0,0,2,1,32,0,0,0,0,0.00,42.07566771039,2.53953886136,18.85475297227
A-1211,N-ethylaniline,"InChI=1S/C8H11N/c1-2-9-8-6-4-3-5-7-8/h3-7,9H,2H2,1H3",OJGMBLNIHDZDGS-UHFFFAOYSA-N,CCNc1ccccc1,-1.65207793550,0.02467336080,2,G3,121.18300,2.11840,40.60570,9,1,1,1,2,48,1,0,0,1,12.03,55.71114953190,2.61489994009,157.47842076562
A-1212,"1,1'-oxybis(3-methylbutane)","InChI=1S/C10H22O/c1-9(2)5-7-11-8-6-10(3)4/h9-10H,5-8H2,1-4H3",AQZGPSLYZOOYQP-UHFFFAOYSA-N,CC(C)CCOCCC(C)C,-3.76010706670,0.43085353335,2,G3,158.28500,3.09520,49.72900,11,1,0,1,6,68,0,0,0,0,9.23,71.13727528691,2.90920509549,66.94196246616
A-1213,sodium 2-({2-amino-8-hydroxy-6-[(2-methylphenyl)sulfamoyl]-1-naphthyl}diazenyl)-5-[(chloroacetyl)amino]benzenesulfonate,"InChI=1S/C25H22ClN5O7S2.Na/c1-31(17-5-3-2-4-6-17)39(34,35)18-11-15-7-9-19(27)25(24(15)21(32)13-18)30-29-20-10-8-16(28-23(33)14-26)12-22(20)40(36,37)38;/h2-13,27,29-30H,14H2,1H3,(H,28,33)(H,36,37,38);/q;+1/p-1",NVRGYEUIJNZYKB-UHFFFAOYSA-M,[Na+].CN(c1ccccc1)[S](=O)(=O)C2=CC(=O)C3=C(NNc4ccc(NC(=O)CCl)cc4[S]([O-])(=O)=O)C(=N)C=CC3=C2,-4.35885706960,0.00000000000,1,G1,626.04800,-0.60863,149.34380,41,10,4,16,9,208,2,0,2,4,188.66,262.95669956959,0.00000462249,1770.09571132003
A-1214,"1,2-dichloro-4-methylbenzene","InChI=1S/C7H6Cl2/c1-5-2-3-6(8)7(9)4-5/h2-4H,1H3",WYUIWKFIFOJVKW-UHFFFAOYSA-N,Cc1ccc(Cl)c(Cl)c1,-3.77554572570,0.00817713715,2,G3,161.03100,3.30182,41.19900,9,0,0,2,0,48,1,0,0,1,0.00,64.40287768766,3.17167803044,218.15617759993
A-1215,"4-amino-2,5-dimethoxy-N-phenylbenzenesulfonamide","InChI=1S/C14H16N2O4S/c1-19-12-9-14(13(20-2)8-11(12)15)21(17,18)16-10-6-4-3-5-7-10/h3-9,16H,15H2,1-2H3",NFYQAEPHDGXJSY-UHFFFAOYSA-N,COc1cc(c(OC)cc1N)[S](=O)(=O)Nc2ccccc2,-4.05769286440,0.00000000000,1,G1,308.35900,2.08680,81.20890,21,5,2,7,5,112,2,0,0,2,90.65,123.09600078640,2.48341500965,730.13926911614
A-1219,4-hydroxy-3-(3-oxo-1-phenylbutyl)-2H-chromen-2-one,"InChI=1S/C19H16O4/c1-12(20)11-15(13-7-3-2-4-8-13)17-18(21)14-9-5-6-10-16(14)23-19(17)22/h2-10,15,22H,11H2,1H3",QTXVAVXCBMYBJW-UHFFFAOYSA-N,CC(=O)CC(c1ccccc1)C2=C(O)Oc3ccccc3C2=O,-3.06250874710,1.58930961343,4,G4,308.33300,3.60960,87.73180,23,4,1,4,4,116,3,0,0,3,67.51,132.55202509118,2.25862532402,909.55097269447
A-1220,"(4-(4-aminophenyl)(4-iminocyclohexa-2,5-dienylidene)methyl)-2-methylaniline hydrochloride","InChI=1S/C20H19N3.ClH/c1-13-12-16(6-11-19(13)23)20(14-2-7-17(21)8-3-14)15-4-9-18(22)10-5-15;/h2-12,23H,21-22H2,1H3;1H",AXDJCCTWPBKUKL-UHFFFAOYSA-N,[H+].[Cl-].CC1=CC(C=CC1=N)=C(c2ccc(N)cc2)c3ccc(N)cc3,-2.10548319120,0.25245192974,3,G5,337.85400,1.30527,99.46650,24,3,3,4,2,122,2,0,1,3,75.89,149.33641800599,0.00000156250,800.01493373456
A-1222,tris(2-methylpropyl) phosphate,"InChI=1S/C12H27O4P/c1-10(2)7-14-17(13,15-8-11(3)4)16-9-12(5)6/h10-12H,7-9H2,1-6H3",HRKAMJBPFPHCSD-UHFFFAOYSA-N,CC(C)CO[P](=O)(OCC(C)C)OCC(C)C,-3.00215464680,0.00000000000,1,G1,266.31800,4.11230,69.97650,17,4,0,5,9,104,0,0,0,0,44.76,105.64386064919,4.29108682312,200.62102776403
A-1225,methyl 2-methylbenzoate,"InChI=1S/C9H10O2/c1-7-5-3-4-6-8(7)9(10)11-2/h3-6H,1-2H3",WVWZECQNFWFVFW-UHFFFAOYSA-N,COC(=O)c1ccccc1C,-1.75664767590,0.00000000000,1,G1,150.17700,1.78162,42.51850,11,2,0,2,1,58,1,0,0,1,26.30,65.80129679224,3.03266215580,266.02017257091
A-1226,2-methylprop-1-ene,"InChI=1S/C4H8/c1-4(2)3/h1H2,2-3H3",VQTUBCCKSQIDNK-UHFFFAOYSA-N,CC(C)=C,-2.32906903980,0.00000000000,1,G1,56.10800,1.58240,20.48800,4,0,0,0,0,24,0,0,0,0,0.00,27.14447433884,2.80303948767,23.01955000865
A-1227,1-(acetyloxy)but-3-en-2-yl acetate,"InChI=1S/C8H12O4/c1-4-8(12-7(3)10)5-11-6(2)9/h4,8H,1,5H2,2-3H3/t8-/m0/s1",MWWXARALRVYLAE-QMMMGPOBSA-N,CC(=O)OC[C@@H](OC(C)=O)C=C,-0.81768141220,0.00000000000,1,G1,172.18000,0.66720,42.38400,12,4,0,4,4,68,0,0,0,0,52.60,71.15437745552,3.74865807811,185.49688176536
A-1228,3-aminophenol,"InChI=1S/C6H7NO/c7-5-2-1-3-6(8)4-5/h1-4,8H,7H2",CWLKGDAVCFYWJK-UHFFFAOYSA-N,Nc1cccc(O)c1,-0.62296284790,0.06143074965,5,G5,109.12800,0.97440,32.51920,8,2,2,2,0,42,1,0,0,1,46.25,47.56552756871,3.07766043797,168.38833891467
A-1231,"2-[2-ethoxy-5-(4-ethylpiperazin-1-yl)sulfonylphenyl]-5-methyl-7-propyl-1H-imidazo[5,1-f][1,2,4]triazin-4-one","InChI=1S/C23H32N6O4S/c1-5-8-20-24-16(4)21-23(30)25-22(26-29(20)21)18-15-17(9-10-19(18)33-7-3)34(31,32)28-13-11-27(6-2)12-14-28/h9-10,15H,5-8,11-14H2,1-4H3,(H,25,26,30)",SECKRCOLJRRGGV-UHFFFAOYSA-N,CCCc1nc(C)c2n1NC(=NC2=O)c3cc(ccc3OCC)[S](=O)(=O)N4CCN(CC)CC4,-4.84386786640,0.00000000000,1,G1,488.61400,2.07042,129.81750,34,8,1,11,8,184,3,1,1,4,112.90,199.16304001362,1.81592318902,1339.47962946919
A-1232,(9E)-N-[3-(dimethylamino)propyl]octadec-9-enamide,"InChI=1S/C23H46N2O/c1-4-5-6-7-8-9-10-11-12-13-14-15-16-17-18-20-23(26)24-21-19-22-25(2)3/h11-12H,4-10,13-22H2,1-3H3,(H,24,26)/b12-11+",UCWYGNTYSWIDSW-VAWYXSNFSA-N,CCCCCCCC/C=C/CCCCCCCC(=O)NCCCN(C)C,-4.14925938910,0.84269859860,2,G2,366.63400,6.09180,115.63270,26,2,1,3,19,154,0,0,0,0,32.34,163.54959246623,3.20523508815,326.16950768236
A-1233,"1,3-dichloro-2-methylbenzene","InChI=1S/C7H6Cl2/c1-5-6(8)3-2-4-7(5)9/h2-4H,1H3",DMEDNTFWIHCBRK-UHFFFAOYSA-N,Cc1c(Cl)cccc1Cl,-3.79193614190,0.00000000000,1,G1,161.03100,3.30182,41.19900,9,0,0,2,0,48,1,0,0,1,0.00,64.40287768766,3.24783473374,197.90617759993
A-1234,cyclododecanone,InChI=1S/C12H22O/c13-12-10-8-6-4-2-1-3-5-7-9-11-12/h1-11H2,SXVPOSFURRDKBO-UHFFFAOYSA-N,O=C1CCCCCCCCCCC1,-3.84582999650,0.11911958290,2,G3,182.30700,3.86020,55.79400,13,1,0,1,0,76,0,1,1,1,17.07,81.90930523271,2.14456000841,126.05990292969
A-1235,"3,7-dimethyloct-6-en-1-yn-3-ol","InChI=1S/C10H16O/c1-5-10(4,11)8-6-7-9(2)3/h1,7,11H,6,8H2,2-4H3",YWTIDNZYLFTNQQ-UHFFFAOYSA-N,CC(C)=CCCC(C)(O)C#C,-1.77208043090,0.00000000000,1,G1,152.23700,2.11700,48.12180,11,1,1,1,3,62,0,0,0,0,20.23,69.12758616927,3.73654477633,177.53968307185
A-1236,4-methyl-3-nitrobenzoic acid,"InChI=1S/C8H7NO4/c1-5-2-3-6(8(10)11)4-7(5)9(12)13/h2-4H,1H3,(H,10,11)",BBEWSMNRCUXQRF-UHFFFAOYSA-N,Cc1ccc(cc1[N+]([O-])=O)C(O)=O,-2.84809802270,0.00000000000,1,G1,181.14700,1.60142,44.79270,13,3,1,5,2,68,1,0,0,1,80.44,73.77001892303,3.26705221236,372.40681802872
A-1237,3-amino-4-methoxybenzenesulfonic acid,"InChI=1S/C7H9NO4S/c1-12-7-3-2-5(4-6(7)8)13(9,10)11/h2-4H,8H2,1H3,(H,9,10,11)",FLIOATBXVNLPLK-UHFFFAOYSA-N,COc1ccc(cc1N)[S](O)(=O)=O,-0.89972434460,0.54301033530,2,G2,203.21900,0.52410,47.22100,13,4,2,6,2,72,1,0,0,1,89.62,75.87841717045,3.25819087338,412.50076079868
A-1239,"(3,4-dihydroxyphenyl)-phenylmethanone","InChI=1S/C13H10O3/c14-11-7-6-10(8-12(11)15)13(16)9-4-2-1-3-5-9/h1-8,14-15H",ARWCZKJISXFBGI-UHFFFAOYSA-N,Oc1ccc(cc1O)C(=O)c2ccccc2,-2.92262004970,0.00000000000,1,G1,214.22000,2.32880,59.64610,16,3,2,3,2,80,2,0,0,2,57.53,92.60342904439,2.38600058916,517.95584524904
A-1240,"2-[(E)-2-{4-[ethyl(2-hydroxyethyl)amino]phenyl}diazen-1-yl]-6-methoxy-3-methyl-1,3-benzothiazol-3-ium acetate","InChI=1S/C19H23N4O2S.C2H4O2/c1-4-23(11-12-24)15-7-5-14(6-8-15)20-21-19-22(2)17-10-9-16(25-3)13-18(17)26-19;1-2(3)4/h5-10,13,24H,4,11-12H2,1-3H3;1H3,(H,3,4)/q+1;/p-1",BLZWSNCCDXVOPZ-UHFFFAOYSA-M,CCN(CCO)c1ccc(cc1)N=Nc2sc3cc(OC)ccc3[n+]2C.CC([O-])=O,-0.22627269110,0.00000000000,1,G1,430.53000,2.72460,115.82480,30,8,1,9,7,160,3,0,0,3,101.43,179.23565901259,0.00000073526,998.15905163203
A-1243,(4R)-4-methyl-2-propyloxan-4-yl acetate (4S)-4-methyl-2-propyloxan-4-yl acetate,"InChI=1S/2C11H20O3/c2*1-4-5-10-8-11(3,6-7-13-10)14-9(2)12/h2*10H,4-8H2,1-3H3/t2*10?,11-/m10/s1",TWUVPRFPARHRLV-URIZOGIISA-N,CCCC1C[C@](C)(CCO1)OC(C)=O.CCCC2C[C@@](C)(CCO2)OC(C)=O,-2.20472323280,0.00000000000,1,G1,400.55600,4.57460,108.10600,28,6,0,6,6,164,0,2,2,2,71.06,170.17442939474,0.00000028000,445.41864964335
A-1245,3-(aminomethyl)heptane,"InChI=1S/C8H19N/c1-3-5-6-8(4-2)7-9/h8H,3-7,9H2,1-2H3",LTHNHFOGQMKPOV-UHFFFAOYSA-N,CCCCC(CC)CN,-1.71348046260,0.00000000000,1,G1,129.24700,2.16150,42.36040,9,1,1,1,5,56,0,0,0,0,26.02,58.63373652562,3.09224619460,48.52932501298
A-1246,3-chloro-4-methylaniline,"InChI=1S/C7H8ClN/c1-5-2-3-6(9)4-7(5)8/h2-4H,9H2,1H3",RQKFYFNZSHWXAW-UHFFFAOYSA-N,Cc1ccc(N)cc1Cl,-1.75312631170,0.01265293260,2,G3,141.60100,2.23062,40.60140,9,1,1,2,0,48,1,0,0,1,26.02,59.43950215779,3.17167803044,220.15617759993
A-1247,"2-(2,4-dihydroxyphenyl)-3,5,7-trihydroxy-4H-chromen-4-one","InChI=1S/C15H10O7/c16-6-1-2-8(9(18)3-6)15-14(21)13(20)12-10(19)4-7(17)5-11(12)22-15/h1-5,16-19,21H",YXOLAZRVSSWPPT-UHFFFAOYSA-N,Oc1ccc(c(O)c1)C2=C(O)C(=O)c3c(O)cc(O)cc3O2,-3.08240905810,0.00000000000,1,G1,302.23800,1.98800,76.24400,22,7,5,7,1,112,3,0,0,3,131.36,122.10766954233,2.40772867095,956.24268278347
A-1252,"4-[1,1-bis(4-hydroxyphenyl)ethyl]phenol","InChI=1S/C20H18O3/c1-20(14-2-8-17(21)9-3-14,15-4-10-18(22)11-5-15)16-6-12-19(23)13-7-16/h2-13,21-23H,1H3",BRPSWMCDEYMRPE-UHFFFAOYSA-N,CC(c1ccc(O)cc1)(c2ccc(O)cc2)c3ccc(O)cc3,-4.08655975700,0.00000000000,1,G1,306.36100,4.15770,89.87640,23,3,3,3,3,116,3,0,0,3,60.69,134.65817701701,2.21453542902,676.87169350168
A-1254,"2,4-dichloro-1-methylbenzene","InChI=1S/C7H6Cl2/c1-5-2-3-6(8)4-7(5)9/h2-4H,1H3",FUNUTBJJKQIVSY-UHFFFAOYSA-N,Cc1ccc(Cl)cc1Cl,-3.80896948120,0.24742501085,2,G3,161.03100,3.30182,41.19900,9,0,0,2,0,48,1,0,0,1,0.00,64.40287768766,3.17167803044,218.15617759993
A-1255,"(4-methoxy-2,2-dimethyl-3a,4,6,6a-tetrahydrofuro[3,4-d][1,3]dioxol-6-yl)methyl 4-methylbenzenesulfonate","InChI=1S/C16H22O7S/c1-10-5-7-11(8-6-10)24(17,18)20-9-12-13-14(15(19-4)21-12)23-16(2,3)22-13/h5-8,12-15H,9H2,1-4H3",IAPMZKRZMYQZSW-UHFFFAOYSA-N,COC1OC(CO[S](=O)(=O)c2ccc(C)cc2)C3OC(C)(C)OC13,-4.15644253320,0.00000000000,1,G1,358.41200,1.59172,83.81180,24,7,0,8,5,134,1,2,2,3,80.29,141.47129036178,1.68688125945,682.88240660059
A-1256,1-methoxy-2-methylbenzene,"InChI=1S/C8H10O/c1-7-5-3-4-6-8(7)9-2/h3-6H,1-2H3",DTFKRVXLBCAIOZ-UHFFFAOYSA-N,COc1ccccc1C,-2.68908339320,0.00000000000,1,G1,122.16700,2.00362,37.73100,9,1,0,1,1,48,1,0,0,1,9.23,55.27483257780,3.00652400733,193.51405299160
A-1258,"(2,4-dichlorophenyl)acetic acid","InChI=1S/C8H6Cl2O2/c9-6-2-1-5(3-8(11)12)7(10)4-6/h1-2,4H,3H2,(H,11,12)",GXMWLJKTGBZMBH-UHFFFAOYSA-N,OC(=O)Cc1ccc(Cl)cc1Cl,-2.91914163990,0.08815906708,3,G5,205.04000,2.62050,47.80180,12,1,1,4,2,64,1,0,0,1,37.30,79.72357565429,2.93480212463,309.92621196610
A-1259,2-(chloromethyl)oxirane; 4-[2-(4-hydroxyphenyl)propan-2-yl]phenol,"InChI=1S/C15H16O2.C3H5ClO/c1-15(2,11-3-7-13(16)8-4-11)12-5-9-14(17)10-6-12;4-1-3-2-5-3/h3-10,16-17H,1-2H3;3H,1-2H2",KUBDPQJOLOUJRM-UHFFFAOYSA-N,CC(C)(c1ccc(O)cc1)c2ccc(O)cc2.ClCC3CO3,-5.02913476490,0.03275077440,2,G3,320.81600,4.04770,88.80160,22,3,2,4,3,118,2,1,1,3,52.99,135.68342897272,0.00000029855,539.23426294592
A-1261,Zirconium propionate,"InChI=1S/C3H6O2.Zr/c1-2-3(4)5;/h2H2,1H3,(H,4,5);/q;+4/p-1",TVCBSVKTTHLKQC-UHFFFAOYSA-M,[Zr+4].CCC([O-])=O,-2.82327919140,0.31445858090,2,G3,164.29500,-0.85620,15.29800,6,2,0,3,1,30,0,0,0,0,40.13,55.67314869945,0.00000000000,44.05785641097
A-1263,4-chlorobenzonitrile,InChI=1S/C7H4ClN/c8-7-3-1-6(5-9)2-4-7/h1-4H,GJNGXPDXRVXSEH-UHFFFAOYSA-N,Clc1ccc(cc1)C#N,-2.74935449600,0.00000000000,1,G1,137.56900,2.21168,36.16700,9,1,0,2,0,44,1,0,0,1,23.79,58.49219114224,3.05603839623,232.08821798626
A-1268,1-chloro-4-nitrobenzene,InChI=1S/C6H4ClNO2/c7-5-1-3-6(4-2-5)8(9)10/h1-4H,CZGCEKJOLUNIFY-UHFFFAOYSA-N,[O-][N+](=O)c1ccc(Cl)cc1,-2.81182867290,0.13619423703,5,G5,157.55600,2.24820,38.10640,10,2,0,4,1,52,1,0,0,1,43.14,62.38764506888,3.00340068458,244.42965837656
A-1269,4-(propan-2-yl)benzaldehyde,"InChI=1S/C10H12O/c1-8(2)10-5-3-9(7-11)4-6-10/h3-8H,1-2H3",WTWBUQJHJGUZCY-UHFFFAOYSA-N,CC(C)c1ccc(C=O)cc1,-2.78525658210,0.30719686320,2,G3,148.20500,2.62250,45.91850,11,1,0,1,2,58,1,0,0,1,17.07,67.05269367713,2.90982279990,233.55461928815
A-1270,4-[(2-methylprop-2-enoyl)oxy]butyl 2-methylprop-2-enoate,"InChI=1S/C12H18O4/c1-9(2)11(13)15-7-5-6-8-16-12(14)10(3)4/h1,3,5-8H2,2,4H3",XOJWAAUYNWGQAU-UHFFFAOYSA-N,CC(=C)C(=O)OCCCCOC(=O)C(C)=C,-2.96902454200,0.00000000000,1,G1,226.27200,2.00520,60.78000,16,4,0,4,7,90,0,0,0,0,52.60,95.92454288093,3.41385576690,261.39388572786
A-1274,1-(3-chlorophenyl)propan-1-one,"InChI=1S/C9H9ClO/c1-2-9(11)7-4-3-5-8(10)6-7/h3-6H,2H2,1H3",PQWGFUFROKIJBO-UHFFFAOYSA-N,CCC(=O)c1cccc(Cl)c1,-1.84670556990,0.00000000000,1,G1,168.62300,2.93270,46.07350,11,1,0,2,2,58,1,0,0,1,17.07,70.99101778961,2.95706403423,268.02017257091
A-1275,2-(phenoxymethyl)oxirane,"InChI=1S/C9H10O2/c1-2-4-8(5-3-1)10-6-9-7-11-9/h1-5,9H,6-7H2",FQYUMYWMJTYZTK-UHFFFAOYSA-N,C1OC1COc2ccccc2,-1.79639218270,0.00000000000,1,G1,150.17700,1.46420,41.67700,11,2,0,2,3,58,1,1,1,2,21.76,65.74748876817,1.85119113972,216.26415929371
A-1276,nonanedioic acid,"InChI=1S/C9H16O4/c10-8(11)6-4-2-1-3-5-7-9(12)13/h1-7H2,(H,10,11)(H,12,13)",BDJRBEYXGGNYIS-UHFFFAOYSA-N,OC(=O)CCCCCCCC(O)=O,-1.89446144940,0.06276927530,2,G3,188.22300,1.88630,47.59060,13,2,2,4,8,76,0,0,0,0,74.60,77.57029964748,2.99610499791,146.99763683371
A-1277,"1,6-dioxacycloheptadecan-7-one",InChI=1S/C15H28O3/c16-15-11-7-5-3-1-2-4-6-8-12-17-13-9-10-14-18-15/h1-14H2,MRMOPGVGWFNHIN-UHFFFAOYSA-N,O=C1CCCCCCCCCCOCCCCO1,-4.01795919970,0.00000000000,1,G1,256.38600,3.85090,72.56500,18,3,0,3,0,106,0,1,1,1,35.53,111.23122203491,2.11369413569,183.91539480971
A-1280,"3,7-dimethyloctanal","InChI=1S/C10H20O/c1-9(2)5-4-6-10(3)7-8-11/h8-10H,4-7H2,1-3H3",UCSIFMPORANABL-UHFFFAOYSA-N,CC(C)CCCC(C)CC=O,-3.80648300670,0.00000000000,1,G1,156.26900,3.03780,48.53400,11,1,0,1,6,66,0,0,0,0,17.07,70.18525215744,3.16183372830,97.04589952781
A-1286,"1,3-diphenylthiourea","InChI=1S/C13H12N2S/c16-13(14-11-7-3-1-4-8-11)15-12-9-5-2-6-10-12/h1-10H,(H2,14,15,16)",FCSHMCFRCYZTRQ-UHFFFAOYSA-N,S=C(Nc1ccccc1)Nc2ccccc2,-3.97168842660,0.01545424214,3,G5,228.32000,3.49550,72.72740,16,1,2,3,2,80,2,0,0,2,24.06,100.31194405438,1.95219414779,410.37351462573
A-1287,"estr-5(10)-ene-3,17-dione","InChI=1S/C18H24O2/c1-18-9-8-14-13-5-3-12(19)10-11(13)2-4-15(14)16(18)6-7-17(18)20/h14-16H,2-10H2,1H3/t14-,15-,16+,18+/m1/s1",RORYLAUXKSWMQL-CBZIJGRNSA-N,C[C@]12CC[C@H]3[C@@H](CCC4=C3CCC(=O)C4)[C@@H]1CCC2=O,-4.05497672920,0.00924170285,2,G3,272.38800,3.84140,77.17000,20,2,0,2,0,108,0,2,4,4,34.14,120.55338352636,1.66802576313,515.51126392948
A-1288,1-bromopropane,"InChI=1S/C3H7Br/c1-2-3-4/h2-3H2,1H3",CYNYIHKIEHGYOZ-UHFFFAOYSA-N,CCCBr,-1.71075624870,0.01425939365,3,G5,122.99300,1.79130,24.08500,4,0,0,1,1,26,0,0,0,0,0.00,35.33668286226,1.97474487139,5.24511249784
A-1289,1-chloro-4-methoxybenzene,"InChI=1S/C7H7ClO/c1-9-7-4-2-6(8)3-5-7/h2-5H,1H3",YRGAYAGBVIXNAQ-UHFFFAOYSA-N,COc1ccc(Cl)cc1,-2.77932549400,0.00000000000,1,G1,142.58500,2.34860,38.00400,9,1,0,2,1,48,1,0,0,1,9.23,59.21315669028,2.88155587765,180.61256853720
A-1290,Fluocortolone,"InChI=1S/C22H29FO4/c1-11-6-14-13-8-16(23)15-7-12(25)4-5-21(15,2)20(13)17(26)9-22(14,3)19(11)18(27)10-24/h4-5,7,11,13-14,16-17,19-20,24,26H,6,8-10H2,1-3H3/t11-,13+,14+,16+,17+,19-,20-,21+,22+/m1/s1",GAKMQHDJQHZUTJ-ULHLPKEOSA-N,C[C@@H]1C[C@H]2[C@@H]3C[C@H](F)C4=CC(=O)C=C[C@]4(C)[C@H]3[C@@H](O)C[C@]2(C)[C@H]1C(=O)CO,-3.20373715540,0.06285880170,3,G5,376.46800,2.63670,98.41460,27,4,2,5,2,148,0,3,4,4,74.60,159.07755185908,1.77251823855,742.59480943637
A-1291,sodium 3-[(E)-2-[4-(phenylamino)phenyl]diazen-1-yl]benzene-1-sulfonate,"InChI=1S/C18H15N3O3S.Na/c22-25(23,24)18-8-4-7-17(13-18)21-20-16-11-9-15(10-12-16)19-14-5-2-1-3-6-14;/h1-13,19H,(H,22,23,24);/q;+1/p-1",NYGZLYXAPMMJTE-UHFFFAOYSA-M,[Na+].[O-][S](=O)(=O)c1cccc(c1)N=Nc2ccc(Nc3ccccc3)cc2,-1.20468609060,0.00000000000,1,G1,375.38500,1.75370,94.74790,26,6,1,8,5,126,3,0,0,3,93.95,173.58426719247,0.00000243000,991.70460880965
A-1292,"3-methyl-1,1-diphenylurea","InChI=1S/C14H14N2O/c1-15-14(17)16(12-8-4-2-5-9-12)13-10-6-3-7-11-13/h2-11H,1H3,(H,15,17)",IMFYAZJNDOZIFV-UHFFFAOYSA-N,CNC(=O)N(c1ccccc1)c2ccccc2,-2.98394615820,0.00000000000,1,G1,226.27900,3.16410,69.47870,17,1,1,3,2,86,2,0,0,2,32.34,100.68959950821,2.43143972759,442.59010088737
A-1293,biphenyl-2-amine,"InChI=1S/C12H11N/c13-12-9-5-4-8-11(12)10-6-2-1-3-7-10/h1-9H,13H2",TWBPWBPGNQWFSJ-UHFFFAOYSA-N,Nc1ccccc1c2ccccc2,-2.86111373450,0.00000000000,1,G1,169.22700,2.93580,56.29040,13,1,1,1,1,64,2,0,0,2,26.02,77.82838802257,2.53607044600,392.87904776216
A-1294,1-{[bis(2-chloroethoxy)phosphoryl]oxy}-2-({[bis(2-chloroethoxy)phosphoryl]oxy}methyl)-3-chloro-2-(chloromethyl)propane,"InChI=1S/C13H24Cl6O8P2/c14-1-5-22-28(20,23-6-2-15)26-11-13(9-18,10-19)12-27-29(21,24-7-3-16)25-8-4-17/h1-12H2",ZGHUDSLVQAGWEY-UHFFFAOYSA-N,ClCCO[P](=O)(OCCCl)OCC(CCl)(CCl)CO[P](=O)(OCCCl)OCCCl,-3.40017535530,0.00000000000,1,G1,582.99300,5.72140,117.67800,29,8,0,16,20,176,0,0,0,0,89.52,200.71864648787,5.15558764389,449.69593995862
A-1295,"cyclohexane-1,4-dicarboxylic acid","InChI=1S/C8H12O4/c9-7(10)5-1-2-6(4-3-5)8(11)12/h5-6H,1-4H2,(H,9,10)(H,11,12)",PXGZQGDTEZPERC-UHFFFAOYSA-N,OC(=O)C1CCC(CC1)C(O)=O,-0.87237072360,0.00000000000,1,G1,172.18000,0.96200,40.71960,12,2,2,4,2,68,0,1,1,1,74.60,70.19952637956,2.39277708019,169.23454122869
A-1298,2-(7-ethyl-1H-indol-3-yl)ethan-1-ol,"InChI=1S/C12H15NO/c1-2-9-4-3-5-11-10(6-7-14)8-13-12(9)11/h3-5,8,13-14H,2,6-7H2,1H3",UVSDNCAZVSQJQA-UHFFFAOYSA-N,CCc1cccc2c(CCO)c[nH]c12,-1.91532641030,0.00000000000,1,G1,189.25800,2.26510,58.46650,14,1,2,2,3,74,2,0,0,2,36.02,83.57623028203,2.57284927074,430.81439173935
A-1302,"3-(1-ethoxyethoxy)-3,7-dimethylocta-1,6-diene","InChI=1S/C14H26O2/c1-7-14(6,11-9-10-12(3)4)16-13(5)15-8-2/h7,10,13H,1,8-9,11H2,2-6H3",ZJPKYCLAROITRY-UHFFFAOYSA-N,CCOC(C)OC(C)(CCC=C(C)C)C=C,-3.97640178430,0.00000000000,1,G1,226.36000,4.07660,69.44000,16,2,0,2,8,94,0,0,0,0,18.46,100.33138290963,4.19244036460,228.88984057993
A-1304,diphenylmethanone,InChI=1S/C13H10O/c14-13(11-7-3-1-4-8-11)12-9-5-2-6-10-12/h1-10H,RWCCWEUUXYIKHB-UHFFFAOYSA-N,O=C(c1ccccc1)c2ccccc2,-3.88220290800,0.37915145400,2,G3,182.22200,2.91760,56.31650,14,1,0,1,2,68,2,0,0,2,17.07,83.01496154000,2.34863760451,376.00325541530
A-1305,1-cyclohexylethyl butanoate,"InChI=1S/C12H22O2/c1-3-7-12(13)14-10(2)11-8-5-4-6-9-11/h10-11H,3-9H2,1-2H3",FTMSYMOBBRINAR-UHFFFAOYSA-N,CCCC(=O)OC(C)C1CCCCC1,-3.92075889750,0.00000000000,1,G1,198.30600,3.29850,57.03700,14,2,0,2,4,82,0,1,1,1,26.30,87.02285046221,2.24855112152,171.16054269565