ID,Name,InChI,InChIKey,SMILES,Solubility,SD,Ocurrences,Group,MolWt,MolLogP,MolMR,HeavyAtomCount,NumHAcceptors,NumHDonors,NumHeteroatoms,NumRotatableBonds,NumValenceElectrons,NumAromaticRings,NumSaturatedRings,NumAliphaticRings,RingCount,TPSA,LabuteASA,BalabanJ,BertzCT
A-1805,"zinc(2+) ion bis(2,2-dimethyloctanoate)","InChI=1S/2C10H20O2.Zn/c2*1-9(2,3)7-10(4,5)6-8(11)12;/h2*6-7H2,1-5H3,(H,11,12);/q;;+2/p-2",JUODUXKPGONLIM-UHFFFAOYSA-L,[Zn++].CC(C)(C)CC(C)(C)CC([O-])=O.CC(C)(C)CC(C)(C)CC([O-])=O,-3.53428809690,0.39665372615,2,G3,407.91000,3.17510,94.95400,25,4,0,5,6,144,0,0,0,0,80.26,167.47382210194,-0.00000037231,372.39254042896
A-1806,"3,7-dimethyloct-6-enenitrile","InChI=1S/C10H17N/c1-9(2)5-4-6-10(3)7-8-11/h5,10H,4,6-7H2,1-3H3",MTDAKBBUYMYKAR-UHFFFAOYSA-N,CC(CCC=C(C)C)CC#N,-3.10415703600,0.00000000000,1,G1,151.25300,3.28258,48.05900,11,1,0,1,4,62,0,0,0,0,23.79,69.72670670668,3.40075153730,158.20181564730
A-1807,2-nitrophenyl acetate,"InChI=1S/C8H7NO4/c1-6(10)13-8-5-3-2-4-7(8)9(11)12/h2-5H,1H3",MRCKRGSNLOHYRA-UHFFFAOYSA-N,CC(=O)Oc1ccccc1[N+]([O-])=O,-2.18552391050,0.00000000000,1,G1,181.14700,1.52010,44.40540,13,4,0,5,2,68,1,0,0,1,69.44,74.08933040034,3.04352735463,347.75219273970
A-1808,"N-(4-amino-2,5-diethoxyphenyl)benzamide","InChI=1S/C17H20N2O3/c1-3-21-15-11-14(16(22-4-2)10-13(15)18)19-17(20)12-8-6-5-7-9-12/h5-11H,3-4,18H2,1-2H3,(H,19,20)",CNXZLZNEIYFZGU-UHFFFAOYSA-N,CCOc1cc(NC(=O)c2ccccc2)c(OCC)cc1N,-2.40575719650,0.00000000000,1,G1,300.35800,3.31850,87.58760,22,4,2,5,6,116,2,0,0,2,73.58,129.59157333722,2.30777287052,641.85235186220
A-1809,"1,3-benzothiazole-2-thiol","InChI=1S/C7H5NS2/c9-7-8-5-3-1-2-4-6(5)10-7/h1-4H,(H,8,9)",YXIWHUQXZSMYRE-UHFFFAOYSA-N,S=C1Nc2ccccc2S1,-3.15150489210,0.46173206478,4,G5,167.25800,2.95889,47.00970,10,2,1,3,0,50,2,0,0,2,15.79,67.33185914980,3.00761954680,362.89835341124
A-1814,1-phenylpyrazolidin-3-one,"InChI=1S/C9H10N2O/c12-9-6-7-11(10-9)8-4-2-1-3-5-8/h1-5H,6-7H2,(H,10,12)",CMCWWLVWPDLCRM-UHFFFAOYSA-N,O=C1CCN(N1)c2ccccc2,-1.14482330110,0.00000000000,1,G1,162.19200,0.92790,46.54770,12,2,1,3,1,62,1,1,1,2,32.34,70.96175228325,2.16315135791,283.83982642578
A-1815,1-(chloromethyl)-2-methylbenzene,"InChI=1S/C8H9Cl/c1-7-4-2-3-5-8(7)6-9/h2-5H,6H2,1H3",VQRBXYBBGHOGFT-UHFFFAOYSA-N,Cc1ccccc1CCl,-3.08132692370,0.00000000000,1,G1,140.61300,2.73382,40.73600,9,0,0,1,1,48,1,0,0,1,0.00,60.46455357517,3.00652400733,193.51405299160
A-1816,prop-1-en-2-ylbenzene,"InChI=1S/C9H10/c1-8(2)9-6-4-3-5-7-9/h3-7H,1H2,2H3",XYLMUPLGERFSHI-UHFFFAOYSA-N,CC(=C)c1ccccc1,-3.00808232150,0.33853063551,3,G5,118.17900,2.71970,41.15000,9,0,0,0,1,46,1,0,0,1,0.00,55.83662643050,2.98145461404,196.53811204568
A-1817,2-methoxy-4-(prop-2-en-1-yl)phenol,"InChI=1S/C10H12O2/c1-3-4-8-5-6-9(11)10(7-8)12-2/h3,5-7,11H,1,4H2,2H3",RRAFCDWBNXTKKO-UHFFFAOYSA-N,COc1cc(CC=C)ccc1O,-2.15317792350,0.29548896175,2,G3,164.20400,2.12930,48.55980,12,2,1,2,3,64,1,0,0,1,29.46,72.10934752660,2.95955954722,279.16711032402
A-1819,"1-Octadecanol, phosphate, potassium salt","InChI=1S/C18H38.K.H3O4P/c1-3-5-7-9-11-13-15-17-18-16-14-12-10-8-6-4-2;;1-5(2,3)4/h3-18H2,1-2H3;;(H3,1,2,3,4)",HFQLXRQLKSICDE-UHFFFAOYSA-N,[K].CCCCCCCCCCCCCCCCCC.O[P](O)(O)=O,-3.52980306390,0.31819135278,5,G5,391.59400,5.95840,105.23690,24,1,3,6,15,143,0,0,0,0,77.76,192.80397475253,-0.00000063921,235.13865282819
A-1821,potassium hydroxysilanoylolate,InChI=1S/K.HO3Si/c;1-4(2)3/h;1H/q+1;-1,WMWBFVSTSRDWRL-UHFFFAOYSA-N,[K+].O[Si]([O-])=O,-3.00446717350,0.00000000000,1,G1,116.18900,-5.24160,8.65930,5,2,1,5,0,24,0,0,0,0,60.36,73.33644973319,0.00000000000,29.87430298093
A-1822,sodium hydroxysilanoylolate,InChI=1S/2Na.O3Si.5H2O/c;;1-4(2)3;;;;;/h;;;5*1H2/q2*+1;-2;;;;;,ADPGKKZKGXANON-UHFFFAOYSA-N,O.O.O.O.O.[Na+].[Na+].[O-][Si]([O-])=O,-3.26592062970,0.00000000000,1,G1,212.13800,-12.99310,24.50950,11,3,0,11,0,64,0,0,0,0,220.69,108.64445142532,-0.00000000214,35.07329781366
A-1823,"1,3-difluorobenzene",InChI=1S/C6H4F2/c7-5-2-1-3-6(8)4-5/h1-4H,UEMGWPRHOOEKTA-UHFFFAOYSA-N,Fc1cccc(F)c1,-2.00035795490,0.00000000000,1,G1,114.09400,1.96480,26.35800,8,0,0,2,0,42,1,0,0,1,0.00,45.76247392535,3.07766043797,166.38833891467
A-1825,cadmium(2+) ion carbonate,"InChI=1S/CH2O3.Cd/c2-1(3)4;/h(H2,2,3,4);/q;+2/p-2",GKDXQAKPHKQZSC-UHFFFAOYSA-L,[Cd++].[O-]C([O-])=O,-2.17968278940,0.00000000000,1,G1,172.42000,-2.44950,5.39600,5,3,0,4,0,24,0,0,0,0,63.19,48.77179220583,0.00000000000,29.87430298093
A-1826,(3Z)-hex-3-en-1-yl 2-methylpropanoate,"InChI=1S/C10H18O2/c1-4-5-6-7-8-12-10(11)9(2)3/h5-6,9H,4,7-8H2,1-3H3/b6-5-",OSMAJVWUIUORGC-WAYWQWQTSA-N,CC\C=C/CCOC(=O)C(C)C,-3.17418737110,0.00000000000,1,G1,170.25200,2.54190,49.84500,12,2,0,2,5,70,0,0,0,0,26.30,74.60919435477,3.31407354131,147.91756911170
A-1827,"3-({9,10-dioxo-4-[(2,4,6-trimethyl-3-sulfophenyl)amino]-9,10-dihydroanthracen-1-yl}amino)-2,4,6-trimethylbenzene-1-sulfonic acid; hexane-1,6-diamine","InChI=1S/C32H30N2O8S2.C6H16N2/c1-15-13-17(3)31(43(37,38)39)19(5)27(15)33-23-11-12-24(26-25(23)29(35)21-9-7-8-10-22(21)30(26)36)34-28-16(2)14-18(4)32(20(28)6)44(40,41)42;7-5-3-1-2-4-6-8/h7-14,33-34H,1-6H3,(H,37,38,39)(H,40,41,42);1-8H2",PAGCKSAVALMKPU-UHFFFAOYSA-N,Cc1cc(C)c(c(C)c1Nc2ccc(Nc3c(C)cc(C)c(c3C)[S](O)(=O)=O)c4C(=O)c5ccccc5C(=O)c24)[S](O)(=O)=O.NCCCCCCN,-2.82060937680,0.00000000000,1,G1,750.94000,6.75732,203.82640,52,10,6,14,11,278,4,0,1,5,218.98,305.07169732065,0.00000067750,2125.53804196639
A-1829,"1,1,2,3,3-pentamethyl-2,3,4,5,6,7-hexahydro-1H-inden-4-one","InChI=1S/C14H22O/c1-9-13(2,3)10-7-6-8-11(15)12(10)14(9,4)5/h9H,6-8H2,1-5H3",MIZGSAALSYARKU-UHFFFAOYSA-N,CC1C(C)(C)C2=C(C(=O)CCC2)C1(C)C,-3.26534225060,0.17906826530,2,G3,206.32900,3.73810,62.61000,15,1,0,1,0,84,0,0,2,2,17.07,92.94375527579,2.59666624753,344.35020121147
A-1832,2-(4-{2-[4-(2-hydroxyethoxy)phenyl]propan-2-yl}phenoxy)ethan-1-ol,"InChI=1S/C19H24O4/c1-19(2,15-3-7-17(8-4-15)22-13-11-20)16-5-9-18(10-6-16)23-14-12-21/h3-10,20-21H,11-14H2,1-2H3",UUAGPGQUHZVJBQ-UHFFFAOYSA-N,CC(C)(c1ccc(OCCO)cc1)c2ccc(OCCO)cc2,-3.45179055340,0.39829709495,2,G3,316.39700,2.75470,90.17360,23,4,2,4,8,124,2,0,0,2,58.92,136.85865008974,2.12929814932,534.27160709790
A-1833,bis(propan-2-yl)amine,"InChI=1S/C6H15N/c1-5(2)7-6(3)4/h5-7H,1-4H3",UAOMVDZJSHZZME-UHFFFAOYSA-N,CC(C)NC(C)C,0.03624221380,0.00000000000,1,G1,101.19300,1.39280,33.40770,7,1,1,1,2,44,0,0,0,0,12.03,46.11382378342,2.95322317456,33.44467835888
A-1835,"7-{[(2S,3R,4S,5S,6R)-4,5-dihydroxy-6-(hydroxymethyl)-3-{[(2S,3R,4R,5R,6S)-3,4,5-trihydroxy-6-methyloxan-2-yl]oxy}oxan-2-yl]oxy}-5-hydroxy-2-(4-hydroxyphenyl)-3,4-dihydro-2H-1-benzopyran-4-one","InChI=1S/C27H32O14/c1-10-20(32)22(34)24(36)26(37-10)41-25-23(35)21(33)18(9-28)40-27(25)38-13-6-14(30)19-15(31)8-16(39-17(19)7-13)11-2-4-12(29)5-3-11/h2-7,10,16,18,20-30,32-36H,8-9H2,1H3/t10-,16-,18+,20-,21+,22+,23-,24+,25+,26-,27+/m0/s1",DFPMSGMNTNDNHN-ZPHOTFPESA-N,C[C@@H]1O[C@@H](O[C@@H]2[C@@H](O)[C@H](O)[C@@H](CO)O[C@H]2Oc3cc(O)c4C(=O)C[C@H](Oc4c3)c5ccc(O)cc5)[C@H](O)[C@H](O)[C@H]1O,-2.72243871530,0.17121134045,2,G3,580.53900,-1.16520,134.14690,41,14,8,14,6,224,2,2,3,5,225.06,233.02825384607,1.41069203908,1237.26397557178
A-1836,tin(2+) ion oxalate,"InChI=1S/C2H2O4.Sn/c3-1(4)2(5)6;/h(H,3,4)(H,5,6);/q;+2/p-2",OQBLGYCUQGDOOR-UHFFFAOYSA-L,[Sn++].[O-]C(=O)C([O-])=O,-2.27400871870,0.00000000000,1,G1,206.72900,-3.89460,15.76800,7,4,0,5,0,36,0,0,0,0,80.26,56.09418769897,0.00000000000,75.69058447171
A-1837,magnesium(2+) ion carbonate,"InChI=1S/CH2O3.Mg/c2-1(3)4;/h(H2,2,3,4);/q;+2/p-2",ZLNQQNXFFQJAID-UHFFFAOYSA-L,[Mg++].[O-]C([O-])=O,-2.88450185740,0.26880100105,2,G3,84.31300,-2.82780,11.15000,5,3,0,4,0,24,0,0,0,0,63.19,44.75913644036,0.00000000000,29.87430298093
A-1839,"1,2-bis(2-methylpropyl) benzene-1,2-dicarboxylate","InChI=1S/C16H22O4/c1-11(2)9-19-15(17)13-7-5-6-8-14(13)16(18)20-10-12(3)4/h5-8,11-12H,9-10H2,1-4H3",MGWAVDBGNNKXQV-UHFFFAOYSA-N,CC(C)COC(=O)c1ccccc1C(=O)OCC(C)C,-4.38389026480,0.22278688816,5,G5,278.34800,3.31220,76.68300,20,4,0,4,6,110,1,0,0,1,52.60,119.63095892256,2.81592575311,420.29960603266
A-1840,"2-[({2,2,4-trimethyl-6-[({2-[(2-methylprop-2-enoyl)oxy]ethoxy}carbonyl)amino]hexyl}carbamoyl)oxy]ethyl 2-methylprop-2-enoate 2-[({2,4,4-trimethyl-6-[({2-[(2-methylprop-2-enoyl)oxy]ethoxy}carbonyl)amino]hexyl}carbamoyl)oxy]ethyl 2-methylprop-2-enoate","InChI=1S/C23H38N2O8/c1-16(2)19(26)30-10-12-32-21(28)24-9-8-18(5)14-23(6,7)15-25-22(29)33-13-11-31-20(27)17(3)4/h18H,1,3,8-15H2,2,4-7H3,(H,24,28)(H,25,29)",UEKHZPDUBLCUHN-UHFFFAOYSA-N,CC(CCNC(=O)OCCOC(=O)C(C)=C)CC(C)(C)CNC(=O)OCCOC(=O)C(C)=C,-4.61992383400,0.00565062840,2,G3,470.56300,3.11990,122.42640,33,8,2,10,15,188,0,0,0,0,129.26,195.58876516561,3.96210614518,702.57496077421
A-1843,1-(2-ethylbutyl)cyclohexane-1-carboxylic acid,"InChI=1S/C13H24O2/c1-3-11(4-2)10-13(12(14)15)8-6-5-7-9-13/h11H,3-10H2,1-2H3,(H,14,15)",XRKJBJLXKLOLKS-UHFFFAOYSA-N,CCC(CC)CC1(CCCCC1)C(O)=O,-4.28169451700,0.00000000000,1,G1,212.33300,3.84780,61.84280,15,1,1,2,5,88,0,1,1,1,37.30,93.06848109930,2.67238623129,200.58149257692
A-1844,dibutyl but-2-enedioate,"InChI=1S/C12H20O4/c1-3-5-9-15-11(13)7-8-12(14)16-10-6-4-2/h7-8H,3-6,9-10H2,1-2H3/b8-7+",JBSLOWBPDRZSMB-BQYQJAHWSA-N,CCCCOC(=O)\C=C\C(=O)OCCCC,-4.31355153720,0.00000000000,1,G1,228.28800,2.22920,60.87400,16,4,0,4,8,92,0,0,0,0,52.60,96.61414591311,3.62821592973,209.17325948008
A-1850,2-[(2-methylprop-2-enoyl)oxy]ethyl 2-methylprop-2-enoate,"InChI=1S/C10H14O4/c1-7(2)9(11)13-5-6-14-10(12)8(3)4/h1,3,5-6H2,2,4H3",STVZJERGLQHEKB-UHFFFAOYSA-N,CC(=C)C(=O)OCCOC(=O)C(C)=C,-2.26131326460,0.00000000000,1,G1,198.21800,1.22500,51.54600,14,4,0,4,5,78,0,0,0,0,52.60,83.19465865213,3.57188751657,237.29556359516
A-1853,methanaminium chloride,"InChI=1S/CH5N.ClH/c1-2;/h2H2,1H3;1H",NQMRYBIKMRVZLB-UHFFFAOYSA-N,[Cl-].C[NH3+],-1.79600224600,1.48328812225,2,G2,67.51900,-4.13790,8.81210,3,0,1,2,0,22,0,0,0,0,27.64,26.23223497739,0.00000000000,4.75488750216
A-1855,"1,2,3-trimethylbenzene; 1H-indene; 2,3-dihydro-1H-indene","InChI=1S/C9H10.C9H8.C9H12/c2*1-2-5-9-7-3-6-8(9)4-1;1-7-5-4-6-8(2)9(7)3/h1-2,4-5H,3,6-7H2;1-6H,7H2;4-6H,1-3H3",KDEGXTBNBBKAJX-UHFFFAOYSA-N,Cc1cccc(C)c1C.C2Cc3ccccc3C2.C4C=Cc5ccccc45,-3.51623781000,0.12051603300,2,G3,354.53700,7.04306,118.30000,27,0,0,0,0,138,3,0,2,5,0.00,164.14046752901,0.00000011681,863.31170335131
A-1857,benzyl 4-hydroxybenzoate,"InChI=1S/C14H12O3/c15-13-8-6-12(7-9-13)14(16)17-10-11-4-2-1-3-5-11/h1-9,15H,10H2",MOZDKDIOPSPTBH-UHFFFAOYSA-N,Oc1ccc(cc1)C(=O)OCc2ccccc2,-3.32498132250,0.01671187775,2,G3,228.24700,2.74920,63.66830,17,3,1,3,3,86,2,0,0,2,46.53,99.28768263610,1.95940546717,488.63558878376
A-1859,(2E)-3-phenylprop-2-enenitrile,InChI=1S/C9H7N/c10-8-4-7-9-5-2-1-3-6-9/h1-7H/b7-4+,ZWKNLRXFUTWSOY-QPJJXVBHSA-N,N#C/C=C/c1ccccc1,-2.08297034180,0.00000000000,1,G1,129.16200,2.22338,41.08900,10,1,0,1,1,48,1,0,0,1,23.79,60.22920611197,2.78994998150,253.80679720013
A-1860,2-[(3-aminophenyl)sulfonyl]ethyl hydrogen sulfate,"InChI=1S/C8H11NO6S2/c9-7-2-1-3-8(6-7)16(10,11)5-4-15-17(12,13)14/h1-3,6H,4-5,9H2,(H,12,13,14)",BCLOBWIFURSERL-UHFFFAOYSA-N,Nc1cccc(c1)[S](=O)(=O)CCO[S](O)(=O)=O,-1.42388084930,0.00000000000,1,G1,281.31100,-0.13810,60.40780,17,6,2,9,5,96,1,0,0,1,123.76,99.07776154269,2.76508555765,592.19634817284
A-1861,"(3E)-4-(2,6,6-trimethylcyclohex-2-en-1-yl)but-3-en-2-one","InChI=1S/C13H20O/c1-10-6-5-9-13(3,4)12(10)8-7-11(2)14/h6-8,12H,5,9H2,1-4H3/b8-7+",UZFLPKAIBPNNCA-BQYQJAHWSA-N,CC(=O)/C=C/C1C(=CCCC1(C)C)C,-3.25867793580,0.28837706305,2,G3,192.30200,3.51410,60.08300,14,1,0,1,2,78,0,0,1,1,17.07,86.89504128273,2.86228960324,281.61068830948
A-1863,ethyl formate,"InChI=1S/C3H6O2/c1-2-5-3-4/h3H,2H2,1H3",WBJINCZRORDGAQ-UHFFFAOYSA-N,CCOC=O,0.15149418790,0.03761429775,2,G3,74.07900,0.17930,17.69000,5,2,0,2,2,30,0,0,0,0,26.30,30.74420258617,2.40171522262,26.07403392115
A-1864,2-amino-4-sulfobenzoic acid,"InChI=1S/C7H7NO5S/c8-6-3-4(14(11,12)13)1-2-5(6)7(9)10/h1-3H,8H2,(H,9,10)(H,11,12,13)",GRGSHONWRKRWGP-UHFFFAOYSA-N,Nc1cc(ccc1C(O)=O)[S](O)(=O)=O,-1.31567452090,0.00000000000,1,G1,217.20200,0.21370,47.62830,14,4,3,7,2,76,1,0,0,1,117.69,79.72062779319,3.33978738578,478.85356353037
A-1865,4-(2-aminoethyl)phenol,"InChI=1S/C8H11NO/c9-6-5-7-1-3-8(10)4-2-7/h1-4,10H,5-6,9H2",DZGWFCGJZKJUFP-UHFFFAOYSA-N,NCCc1ccc(O)cc1,-1.11610783120,0.00000000000,1,G1,137.18200,0.89340,40.86520,10,2,2,2,2,54,1,0,0,1,46.25,60.29541179750,2.69380345236,192.91749419417
A-1866,sodium 6-amino-5-[[2-[(cyclohexylmethylamino)sulphonyl]phenyl]azo]-4-hydroxynaphthalene-2-sulphonate,"InChI=1S/C23H26N4O6S2.Na/c1-27(16-7-3-2-4-8-16)34(29,30)21-10-6-5-9-19(21)25-26-23-18(24)12-11-15-13-17(35(31,32)33)14-20(28)22(15)23;/h5-6,9-14,16,24-26H,2-4,7-8H2,1H3,(H,31,32,33);/q;+1/p-1",LSBJGNGGNXAKCL-UHFFFAOYSA-M,[Na+].CN(C1CCCCC1)[S](=O)(=O)c2ccccc2NNC3=C4C(=O)C=C(C=C4C=CC3=N)[S]([O-])(=O)=O,-2.71168593890,0.00000000000,1,G1,540.59900,-0.65783,129.78510,36,9,3,13,7,186,1,1,3,4,159.56,232.33889215705,0.00000360999,1421.80524289296
A-1867,2-butoxyethyl benzoate,"InChI=1S/C13H18O3/c1-2-3-9-15-10-11-16-13(14)12-7-5-4-6-8-12/h4-8H,2-3,9-11H2,1H3",NMBQBIACXMPEQB-UHFFFAOYSA-N,CCCCOCCOC(=O)c1ccccc1,-3.32242253560,0.00000000000,1,G1,222.28400,2.66010,62.45150,16,3,0,3,7,88,1,0,0,1,35.53,96.37461047933,2.11672815865,295.30583312378
A-1868,2-methoxy-4-nitroaniline,"InChI=1S/C7H8N2O3/c1-12-7-4-5(9(10)11)2-3-6(7)8/h2-4H,8H2,1H3",GVBHRNIWBGTNQA-UHFFFAOYSA-N,COc1cc(ccc1N)[N+]([O-])=O,-3.20451273810,0.00000000000,1,G1,168.15200,1.18560,44.06080,12,4,1,5,2,64,1,0,0,1,78.39,68.90275688291,3.13430024995,311.51984000954
A-1869,zinc(2+) ion sulfanediide,InChI=1S/S.Zn,WGPCGCOKHWGKJJ-UHFFFAOYSA-N,S=[Zn],-2.96762373940,1.97894840528,3,G4,97.45700,0.64570,7.59100,2,1,0,2,0,8,0,0,0,0,0.00,27.14143790237,2.00000000000,2.00000000000
A-1870,2-({3-[bis(carboxymethyl)amino]propyl}(carboxymethyl)amino)acetic acid,"InChI=1S/C11H18N2O8/c14-8(15)4-12(5-9(16)17)2-1-3-13(6-10(18)19)7-11(20)21/h1-7H2,(H,14,15)(H,16,17)(H,18,19)(H,20,21)",DMQQXDPCRUGSQB-UHFFFAOYSA-N,OC(=O)CN(CCCN(CC(O)=O)CC(O)=O)CC(O)=O,-1.46907253720,0.00000000000,1,G1,306.27100,-1.68110,68.04020,21,6,4,10,12,120,0,0,0,0,155.68,119.73136292116,4.33667314676,329.68446712989
A-1871,"3,4,5-trifluorophenol","InChI=1S/C6H3F3O/c7-4-1-3(10)2-5(8)6(4)9/h1-2,10H",ZRTWIJKGTUGZJY-UHFFFAOYSA-N,Oc1cc(F)c(F)c(F)c1,-0.15360969170,0.00000000000,1,G1,148.08300,1.80950,27.98080,10,1,1,4,0,54,1,0,0,1,20.23,54.72224308047,3.31053287472,236.16499587007
A-1872,hexanoic acid,"InChI=1S/C6H12O2/c1-2-3-4-5-6(7)8/h2-5H2,1H3,(H,7,8)",FUZZWVXGSFPDMH-UHFFFAOYSA-N,CCCCCC(O)=O,-1.05221937870,0.00000000000,1,G1,116.16000,1.65130,31.77780,8,1,1,2,4,48,0,0,0,0,37.30,49.51971745205,2.82235455425,68.92878689342
A-1873,"1,2,3-tributyl 2-hydroxypropane-1,2,3-tricarboxylate","InChI=1S/C18H32O7/c1-4-7-10-23-15(19)13-18(22,17(21)25-12-9-6-3)14-16(20)24-11-8-5-2/h22H,4-14H2,1-3H3",ZFOZVQLOBQUTQQ-UHFFFAOYSA-N,CCCCOC(=O)CC(O)(CC(=O)OCCCC)C(=O)OCCCC,-3.54527097160,0.00000000000,1,G1,360.44700,2.52760,91.78480,25,7,1,7,14,146,0,0,0,0,99.13,149.56270271342,4.79734472233,382.22876128572
A-1874,"(2,4-dimethylcyclohex-3-en-1-yl)methyl acetate","InChI=1S/C11H18O2/c1-8-4-5-11(9(2)6-8)7-13-10(3)12/h6,9,11H,4-5,7H2,1-3H3",LICUDMOFXVHDPB-UHFFFAOYSA-N,CC1C=C(C)CCC1COC(C)=O,-3.25039855770,0.00000000000,1,G1,182.26300,2.54190,52.27800,13,2,0,2,2,74,0,0,1,1,26.30,79.96830531563,2.39685563716,218.13016856544
A-1875,2-ethylhexyl cyanoacetate,"InChI=1S/C11H19NO2/c1-3-5-6-10(4-2)9-14-11(13)7-8-12/h10H,3-7,9H2,1-2H3",ZNYBQVBNSXLZNI-UHFFFAOYSA-N,CCCCC(CC)COC(=O)CC#N,-3.28647848460,0.00000000000,1,G1,197.27800,2.65968,54.49500,14,3,0,3,7,80,0,0,0,0,50.09,86.05631918281,3.61466863825,195.95443731951
A-1876,tetralead trioxide sulphate,"InChI=1S/H2O4S.3O.4Pb/c1-5(2,3)4;;;;;;;/h(H2,1,2,3,4);;;;;;;/q;;;;;;;+2/p-2",ULGNLQBHIXGZMQ-UHFFFAOYSA-L,[Pb++].[O-][S]([O-])(=O)=O.O=[Pb].O=[Pb].O=[Pb],-3.97945017560,0.00000000000,1,G1,972.86000,-3.21760,35.55010,12,7,0,12,0,64,0,0,0,0,131.47,137.65227039489,-0.00000002033,126.73047810401
A-1877,"6-{[amino(phenyl)acetyl]amino}-3,3-dimethyl-7-oxo-4-thia-1-azabicyclo[3.2.0]heptane-2-carboxylic acid","InChI=1S/C16H19N3O4S/c1-16(2)11(15(22)23)19-13(21)10(14(19)24-16)18-12(20)9(17)8-6-4-3-5-7-8/h3-7,9-11,14H,17H2,1-2H3,(H,18,20)(H,22,23)/t9-,10-,11+,14-/m1/s1",AVKUERGKIZMTKX-NJBDSQKTSA-N,CC1(C)S[C@@H]2[C@H](NC(=O)[C@H](N)c3ccccc3)C(=O)N2[C@H]1C(O)=O,-1.53901644230,0.00000000000,1,G1,349.41200,0.31810,89.02890,24,5,3,8,4,128,1,2,2,3,112.73,143.12065858492,1.71129331557,693.82275542059
A-1878,4-[(4-aminophenyl)methyl]aniline,"InChI=1S/C13H14N2/c14-12-5-1-10(2-6-12)9-11-3-7-13(15)8-4-11/h1-8H,9,14-15H2",YBRVSVVVWCFQMG-UHFFFAOYSA-N,Nc1ccc(Cc2ccc(N)cc2)cc1,-2.29293344240,0.00000000000,1,G1,198.26900,2.44180,64.51480,15,2,2,2,2,76,2,0,0,2,52.04,89.53322083398,2.14671137562,385.59806165346
A-1879,"6-ethoxy-2,2,4-trimethyl-1,2-dihydroquinoline","InChI=1S/C14H19NO/c1-5-16-11-6-7-13-12(8-11)10(2)9-14(3,4)15-13/h6-9,15H,5H2,1-4H3",DECIPOUIJURFOJ-UHFFFAOYSA-N,CCOc1ccc2NC(C)(C)C=C(C)c2c1,-3.33276233500,0.17413877730,4,G5,217.31200,3.69270,68.96370,16,2,1,2,2,86,1,0,1,2,21.26,97.31891326207,2.41526997547,432.36152386019
A-1881,nonanal,"InChI=1S/C9H18O/c1-2-3-4-5-6-7-8-9-10/h9H,2-8H2,1H3",GYHFUZHODSMOHU-UHFFFAOYSA-N,CCCCCCCCC=O,-3.14870647630,0.01667565106,3,G5,142.24200,2.93590,44.05700,10,1,0,1,7,60,0,0,0,0,17.07,63.82031004305,2.70378990125,69.12851783364
A-1884,1-(2-furyl)methanamine,"InChI=1S/C5H7NO/c6-4-5-2-1-3-7-5/h1-3H,4,6H2",DDRPCXLAQZKBJP-UHFFFAOYSA-N,NCc1occc1,1.01270474170,0.00000000000,1,G1,97.11700,0.73830,26.59940,7,2,1,2,1,38,1,0,0,1,39.16,41.93056519498,2.76260834144,122.63609436412
A-1885,"2,2,2-trifluoroethan-1-ol","InChI=1S/C2H3F3O/c3-2(4,5)1-6/h6H,1H2",RHQDFWAXVIIEBN-UHFFFAOYSA-N,OCC(F)(F)F,0.99983065820,0.00000000000,1,G1,100.03900,0.54100,13.14080,6,1,1,4,0,38,0,0,0,0,20.23,32.39503310320,3.16848987267,38.54808140664
A-1886,"2,4,6,8,10-pentamethyl-1,3,5,7,9,2,4,6,8,10-pentaoxapentasilecane",InChI=1S/C5H15O5Si5/c1-11-6-12(2)8-14(4)10-15(5)9-13(3)7-11/h1-5H3,PUNGSQUVTIDKNU-UHFFFAOYSA-N,C[Si]1O[Si](C)O[Si](C)O[Si](C)O[Si](C)O1,0.52929557030,0.00000000000,1,G1,295.60000,0.67300,63.51500,15,5,0,10,0,85,0,1,1,1,46.15,99.88250908941,2.54506274992,140.21299940856
A-1887,2-(2-ethoxyethoxy)ethyl acetate,"InChI=1S/C8H16O4/c1-3-10-4-5-11-6-7-12-8(2)9/h3-7H2,1-2H3",FPZWZCWUIYYYBU-UHFFFAOYSA-N,CCOCCOCCOC(C)=O,0.75396451960,0.00000000000,1,G1,176.21200,0.60260,43.94500,12,4,0,4,7,72,0,0,0,0,44.76,72.79600361717,2.86138733944,113.62548782627
A-1890,[tris(isopropenyloxy)vinyl]silane,"InChI=1S/C11H18O3Si/c1-8-15(12-9(2)3,13-10(4)5)14-11(6)7/h8H,1-2,4,6H2,3,5,7H3",GBFVZTUQONJGSL-UHFFFAOYSA-N,CC(=C)O[Si](OC(C)=C)(OC(C)=C)C=C,0.64522333860,0.00000000000,1,G1,226.34800,3.30110,63.64800,15,3,0,4,7,84,0,0,0,0,27.69,92.72186856368,4.89756315061,253.41417184399
A-1892,"butane-1,4-diol","InChI=1S/C4H10O2/c5-3-1-2-4-6/h5-6H,1-4H2",WERYXYBDKMZEQL-UHFFFAOYSA-N,OCCCCO,1.04516917890,0.50000000000,2,G3,90.12200,-0.24880,23.40560,6,2,2,2,3,38,0,0,0,0,40.46,37.42254487541,2.33909231498,17.50977500433
A-1893,"hexamethyl-1,3,5,2,4,6-trioxatrisilinane","InChI=1S/C6H18O3Si3/c1-10(2)7-11(3,4)9-12(5,6)8-10/h1-6H3",HTDJPCNNEPUOOQ-UHFFFAOYSA-N,C[Si]1(C)O[Si](C)(C)O[Si](C)(C)O1,0.65273830600,2.89794000865,2,G2,222.46500,2.15520,55.70100,12,3,0,6,0,72,0,1,1,1,27.69,77.78169904438,2.80802099676,145.19311924156
A-1896,"propane-1,2,3-triol","InChI=1S/C3H8O3/c4-1-3(6)2-5/h3-6H,1-2H2",PEDCQBHIVMGVHV-UHFFFAOYSA-N,OCC(O)CO,1.03576866350,0.14634513902,3,G5,92.09400,-1.66810,20.17840,6,3,3,3,2,38,0,0,0,0,60.69,35.85183651321,2.75418478604,25.21928094887
A-1898,tetraethylazanium bromide,"InChI=1S/C8H20N.BrH/c1-5-9(6-2,7-3)8-4;/h5-8H2,1-4H3;1H/q+1;/p-1",HWCKGOZZJDHMNC-UHFFFAOYSA-M,[Br-].CC[N+](CC)(CC)CC,0.67745200670,0.00000000000,1,G1,210.15900,-1.11320,42.42440,10,0,0,2,4,64,0,0,0,0,0.00,75.77635309785,0.00000000000,52.14806784229
A-1899,tetraethylazanium chloride,"InChI=1S/C8H20N.ClH/c1-5-9(6-2,7-3)8-4;/h5-8H2,1-4H3;1H/q+1;/p-1",YMBCJWGVCUEGHA-UHFFFAOYSA-M,[Cl-].CC[N+](CC)(CC)CC,0.78065652430,0.00000000000,1,G1,165.70800,-1.11320,42.42440,10,0,0,2,4,64,0,0,0,0,0.00,71.41674423795,0.00000000000,52.14806784229