ID,Name,InChI,InChIKey,SMILES,Solubility,SD,Ocurrences,Group,MolWt,MolLogP,MolMR,HeavyAtomCount,NumHAcceptors,NumHDonors,NumHeteroatoms,NumRotatableBonds,NumValenceElectrons,NumAromaticRings,NumSaturatedRings,NumAliphaticRings,RingCount,TPSA,LabuteASA,BalabanJ,BertzCT
A-1498,2-[(1Z)-({2-[(E)-[(2-hydroxyphenyl)methylidene]amino]propyl}imino)methyl]phenol,"InChI=1S/C17H18N2O2/c1-13(19-12-15-7-3-5-9-17(15)21)10-18-11-14-6-2-4-8-16(14)20/h2-9,11-13,18-19H,10H2,1H3/b14-11-,15-12-",OWGJODGIHAHWQP-GFCQZRJLSA-N,CC(CN\C=C/1C=CC=CC1=O)N\C=C/2C=CC=CC2=O,-3.17202342400,0.00000000000,1,G1,282.34300,1.71210,83.34040,21,4,2,4,5,108,0,0,2,2,58.20,123.85181292531,1.78971251949,604.27964781075
A-1499,"magnesium(2+) ion bis(2,3-dinonylnaphthalene-1-sulfonate)","InChI=1S/2C28H44O3S.Mg/c2*1-3-5-7-9-11-13-15-19-24-23-25-20-17-18-22-27(25)28(32(29,30)31)26(24)21-16-14-12-10-8-6-4-2;/h2*17-18,20,22-23H,3-16,19,21H2,1-2H3,(H,29,30,31);/q;;+2/p-2",QGEKBXUETMOETP-UHFFFAOYSA-L,[Mg++].CCCCCCCCCc1cc2ccccc2c(c1CCCCCCCCC)[S]([O-])(=O)=O.CCCCCCCCCc3cc4ccccc4c(c3CCCCCCCCC)[S]([O-])(=O)=O,-4.67447291740,0.02279173850,2,G3,943.73700,16.27940,276.36440,65,6,0,9,34,360,4,0,0,4,114.40,413.52274148902,0.00000044000,1963.26109445149
A-1501,4-[4-(propan-2-yloxy)benzenesulfonyl]phenol,"InChI=1S/C15H16O4S/c1-11(2)19-13-5-9-15(10-6-13)20(17,18)14-7-3-12(16)4-8-14/h3-11,16H,1-2H3",ZTILAOCGFRDHBH-UHFFFAOYSA-N,CC(C)Oc1ccc(cc1)[S](=O)(=O)c2ccc(O)cc2,-4.17144578510,0.00000000000,1,G1,292.35600,3.01220,75.76460,20,4,1,5,4,106,2,0,0,2,63.60,118.11650103224,2.32176117243,670.81838224554
A-1503,tetramethylsilane,"InChI=1S/C4H12Si/c1-5(2,3)4/h1-4H3",CZDYPVPMEAXLPK-UHFFFAOYSA-N,C[Si](C)(C)C,-3.65334051820,0.00000000000,1,G1,88.22600,1.95440,29.21000,5,0,0,1,0,32,0,0,0,0,0.00,35.21506461640,3.02371578407,19.11941547876
A-1505,"2,2'-(2,5-dichloro-1,4-phenylene)bis(1H-anthra[1,2-d]imidazole-6,11-dione)","InChI=1S/C36H16Cl2N4O4/c37-23-14-22(36-40-26-12-10-20-28(30(26)42-36)34(46)18-8-4-2-6-16(18)32(20)44)24(38)13-21(23)35-39-25-11-9-19-27(29(25)41-35)33(45)17-7-3-1-5-15(17)31(19)43/h1-14H,(H,39,41)(H,40,42)",MLQFPPIUTFMVLZ-UHFFFAOYSA-N,Clc1cc(c(Cl)cc1c2[nH]c3ccc4C(=O)c5ccccc5C(=O)c4c3n2)c6[nH]c7ccc8C(=O)c9ccccc9C(=O)c8c7n6,-4.52477594110,0.00000000000,1,G1,639.45400,7.63080,173.25140,46,6,2,10,2,218,7,0,2,9,125.64,268.58145281561,1.14044222737,2418.15964128797
A-1506,"3,5,5-trimethylhexyl acetate","InChI=1S/C11H22O2/c1-9(8-11(3,4)5)6-7-13-10(2)12/h9H,6-8H2,1-5H3",DGKXDLCVQSQVBC-UHFFFAOYSA-N,CC(CCOC(C)=O)CC(C)(C)C,-3.98916783170,0.00000000000,1,G1,186.29500,3.01190,54.48600,13,2,0,2,4,78,0,0,0,0,26.30,81.66373950135,3.51769574055,155.96343903735
A-1508,"benzene-1,4-dicarbonyl dichloride",InChI=1S/C8H4Cl2O2/c9-7(11)5-1-2-6(4-3-5)8(10)12/h1-4H,LXEJRKJRKIFVNY-UHFFFAOYSA-N,ClC(=O)c1ccc(cc1)C(Cl)=O,-4.02879377910,0.05133117095,2,G3,203.02400,2.44460,46.80900,12,2,0,4,2,62,1,0,0,1,34.14,79.09086400214,3.00614983373,283.33467465916
A-1509,oxolan-2-ylmethyl 2-methylprop-2-enoate,"InChI=1S/C9H14O3/c1-7(2)9(10)12-6-8-4-3-5-11-8/h8H,1,3-6H2,2H3",LCXXNKZQVOXMEH-UHFFFAOYSA-N,CC(=C)C(=O)OCC1CCCO1,-0.95245500390,0.00000000000,1,G1,170.20800,1.28470,44.74700,12,3,0,3,3,68,0,1,1,1,35.53,72.35196631635,2.15794084401,180.21266925022
A-1510,"estr-4-ene-3,17-dione","InChI=1S/C18H24O2/c1-18-9-8-14-13-5-3-12(19)10-11(13)2-4-15(14)16(18)6-7-17(18)20/h10,13-16H,2-9H2,1H3/t13-,14+,15+,16-,18-/m0/s1",JRIZOGLBRPZBLQ-QXUSFIETSA-N,C[C@]12CC[C@H]3[C@@H](CCC4=CC(=O)CC[C@H]34)[C@@H]1CCC2=O,-3.15650066210,0.53635680568,3,G4,272.38800,3.69730,77.10000,20,2,0,2,0,108,0,3,4,4,34.14,120.55338352636,1.64618862920,503.54761182903
A-1511,benzyl 2-methylprop-2-enoate,"InChI=1S/C11H12O2/c1-9(2)11(12)13-8-10-6-4-3-5-7-10/h3-7H,1,8H2,2H3",AOJOEFVRHOZDFN-UHFFFAOYSA-N,CC(=C)C(=O)OCc1ccccc1,-2.96820454120,0.00000000000,1,G1,176.21500,2.30590,51.05200,13,2,0,2,3,68,1,0,0,1,26.30,77.84157798885,2.44256132045,301.12613448327
A-1513,diethyl carbonate,"InChI=1S/C5H10O3/c1-3-7-5(6)8-4-2/h3-4H2,1-2H3",OIFBSDVPJOWBCH-UHFFFAOYSA-N,CCOC(=O)OCC,-0.79820970750,0.00000000000,1,G1,118.13200,1.17940,28.64800,8,3,0,3,2,48,0,0,0,0,35.53,48.58763204447,3.05517220391,62.07403392115
A-1515,"(2E)-1-(2,6,6-trimethylcyclohexa-1,3-dien-1-yl)but-2-en-1-one","InChI=1S/C13H18O/c1-5-7-11(14)12-10(2)8-6-9-13(12,3)4/h5-8H,9H2,1-4H3/b7-5+",POIARNZEYGURDG-FNORWQNLSA-N,C/C=C/C(=O)C1=C(C)C=CCC1(C)C,-3.00524898760,0.00000000000,1,G1,190.28600,3.43420,60.05900,14,1,0,1,2,76,0,0,1,1,17.07,86.20543825055,3.13724767763,327.14472577800
A-1516,"2,4-dichloro-1-nitrobenzene",InChI=1S/C6H3Cl2NO2/c7-4-1-2-6(9(10)11)5(8)3-4/h1-3H,QUIMTLZDMCNYGY-UHFFFAOYSA-N,[O-][N+](=O)c1ccc(Cl)cc1Cl,-3.00914564140,0.95204470429,3,G4,192.00100,2.90160,43.11640,11,2,0,5,1,58,1,0,0,1,43.14,72.69091129576,3.19606966213,300.63379922646
A-1517,(5S)-2-methyl-5-(prop-1-en-2-yl)cyclohex-2-en-1-one,"InChI=1S/C10H14O/c1-7(2)9-5-4-8(3)10(11)6-9/h4,9H,1,5-6H2,2-3H3/t9-/m0/s1",ULDHMXUKGWMISQ-VIFPVBQESA-N,CC(=C)[C@H]1CC=C(C)C(=O)C1,-1.90265365970,0.00000000000,1,G1,150.22100,2.48790,46.30200,11,1,0,1,1,60,0,0,1,1,17.07,67.80021493955,2.69829420031,223.02727634487
A-1518,octylphosphonic acid,"InChI=1S/C8H19O3P/c1-2-3-4-5-6-7-8-12(9,10)11/h2-8H2,1H3,(H2,9,10,11)",NJGCRMAPOWGWMW-UHFFFAOYSA-N,CCCCCCCC[P](O)(O)=O,-3.01480955180,1.86326786365,2,G2,194.21100,2.52460,50.28710,12,1,2,4,7,74,0,0,0,0,57.53,74.34525374935,3.06239842111,141.23839910900
A-1519,calcium dimagnesium(2+) ion tetrahydroxide oxidandiide,"InChI=1S/C19H26O3/c1-18-7-5-12(20)9-11(18)3-4-13-14(18)6-8-19(2)16(22)10-15(21)17(13)19/h9,13-15,17,21H,3-8,10H2,1-2H3/t13-,14+,15?,17-,18+,19-/m1/s1",MYKMKUGZFQKMOZ-HYNIEHHYSA-N,C[C@]12CCC(=O)C=C1CC[C@@H]3[C@@H]2CC[C@@]4(C)[C@H]3C(O)CC4=O,-2.21309694170,0.36362599685,2,G3,302.41400,3.05820,83.10680,22,3,1,3,0,120,0,3,4,4,54.37,131.71255939295,1.72655415898,577.22937023352
A-1520,"4-chloro-2,5-dimethoxyaniline","InChI=1S/C8H10ClNO2/c1-11-7-4-6(10)8(12-2)3-5(7)9/h3-4H,10H2,1-2H3",YGUFQYGSBVXPMC-UHFFFAOYSA-N,COc1cc(Cl)c(OC)cc1N,-3.00612129150,0.00000000000,1,G1,187.62600,1.93940,48.96840,12,3,1,4,2,66,1,0,0,1,44.48,76.03153473120,3.16487410508,258.88150377073
A-1521,plumbane,InChI=1S/Pb,WABPQHHGFIMREM-UHFFFAOYSA-N,[Pb],-3.04921802270,0.00000000000,1,G1,207.20000,-0.38080,5.75400,1,0,0,1,0,4,0,0,0,0,0.00,27.65102933347,0.00000000000,0.00000000000
A-1523,3-methylbutyl butanoate,"InChI=1S/C9H18O2/c1-4-5-9(10)11-7-6-8(2)3/h8H,4-7H2,1-3H3",PQLMXFQTAMDXIZ-UHFFFAOYSA-N,CCCC(=O)OCCC(C)C,-2.93285212330,0.00000000000,1,G1,158.24100,2.37580,45.32200,11,2,0,2,5,66,0,0,0,0,26.30,68.93385527255,3.17276438289,108.13036060964
A-1524,3-(cyclohexylamino)propane-1-sulfonic acid,"InChI=1S/C9H19NO3S/c11-14(12,13)8-4-7-10-9-5-2-1-3-6-9/h9-10H,1-8H2,(H,11,12,13)",PJWWRFATQTVXHA-UHFFFAOYSA-N,O[S](=O)(=O)CCCNC1CCCCC1,-3.08020676310,0.00000000000,1,G1,221.32200,1.18660,55.90830,14,3,2,5,5,84,0,1,1,1,66.40,85.83145498312,2.02909327319,244.78268151049
A-1528,(2E)-2-(phenylmethylidene)heptanal,"InChI=1S/C14H18O/c1-2-3-5-10-14(12-15)11-13-8-6-4-7-9-13/h4,6-9,11-12H,2-3,5,10H2,1H3/b14-11-",HMKKIXGYKWDQSV-KAMYIIQDSA-N,CCCCC/C(C=O)=C/c1ccccc1,-3.04665841750,0.00000000000,1,G1,202.29700,3.84920,64.62500,15,1,0,1,6,80,1,0,0,1,17.07,91.82285910253,2.57620901725,311.37040217800
A-1532,1-bromo-3-chloropropane,InChI=1S/C3H6BrCl/c4-2-1-3-5/h1-3H2,MFESCIUQSIBMSM-UHFFFAOYSA-N,ClCCCBr,-1.94015141150,0.45102676278,3,G5,157.43800,2.01020,29.13100,5,0,0,2,2,32,0,0,0,0,0.00,45.63994908915,2.19060968716,14.36452797660
A-1533,"2,2,2-trichloroethane-1,1-diol","InChI=1S/C2H3Cl3O2/c3-2(4,5)1(6)7/h1,6-7H",RNFNDJAIBTYOQL-UHFFFAOYSA-N,OC(O)C(Cl)(Cl)Cl,1.03716729780,0.47518564030,6,G5,165.40300,0.66730,28.51560,7,2,2,5,0,44,0,0,0,0,40.46,55.60245932726,3.54119696508,56.44547197387
A-1534,"disodium (5E)-5-[2-(2-methoxy-5-methyl-4-sulfonatophenyl)hydrazin-1-ylidene]-6-oxo-5,6-dihydronaphthalene-2-sulfonate","InChI=1S/C18H16N2O8S2.2Na/c1-10-7-14(16(28-2)9-17(10)30(25,26)27)19-20-18-13-5-4-12(29(22,23)24)8-11(13)3-6-15(18)21;;/h3-9,19H,1-2H3,(H,22,23,24)(H,25,26,27);;/q;2*+1/p-2/b20-18+;;",POXPUHKJGLHZEM-VIPPSAFOSA-L,[Na+].[Na+].COc1cc(c(C)cc1N\N=C2\C(=O)C=Cc3cc(ccc23)[S]([O-])(=O)=O)[S]([O-])(=O)=O,-0.44058551360,0.04357508785,2,G3,496.43000,-4.76808,104.30010,32,10,1,14,5,158,2,0,1,3,165.09,228.75717511099,0.00000256000,1336.98863136906
A-1538,5-hydroxyisophthalic acid,"InChI=1S/C8H6O5/c9-6-2-4(7(10)11)1-5(3-6)8(12)13/h1-3,9H,(H,10,11)(H,12,13)",QNVNLUSHGRBCLO-UHFFFAOYSA-N,OC(=O)c1cc(O)cc(c1)C(O)=O,-2.00511136700,0.23844431650,2,G3,182.13100,0.78860,42.02540,13,3,3,5,2,68,1,0,0,1,94.83,72.86703280497,3.26340761310,336.54717755429
A-1539,"disodium 2,2'-ethene-1,2-diylbis{5-[(4-anilino-6-morpholin-4-yl-1,3,5-triazin-2-yl)amino]benzenesulfonate}","InChI=1S/C40H40N12O8S2.2Na/c53-61(54,55)33-25-31(43-37-45-35(41-29-7-3-1-4-8-29)47-39(49-37)51-17-21-59-22-18-51)15-13-27(33)11-12-28-14-16-32(26-34(28)62(56,57)58)44-38-46-36(42-30-9-5-2-6-10-30)48-40(50-38)52-19-23-60-24-20-52;;/h1-16,25-26H,17-24H2,(H,53,54,55)(H,56,57,58)(H2,41,43,45,47,49)(H2,42,44,46,48,50);;/q;2*+1/p-2/b12-11+;;",VUJGKADZTYCLIL-YHPRVSEPSA-L,[Na+].[Na+].[O-][S](=O)(=O)c1cc(Nc2nc(Nc3ccccc3)nc(n2)N4CCOCC4)ccc1/C=C/c5ccc(Nc6nc(Nc7ccccc7)nc(n6)N8CCOCC8)cc5[S]([O-])(=O)=O,-2.71083823900,0.01174054790,2,G3,924.93400,-1.30920,229.47120,64,20,4,24,14,320,6,2,2,8,264.80,413.01319563958,0.00000340071,2616.47380516625
A-1540,"1,6-bis(propan-2-yl) hexanedioate","InChI=1S/C12H22O4/c1-9(2)15-11(13)7-5-6-8-12(14)16-10(3)4/h9-10H,5-8H2,1-4H3",ZDQWESQEGGJUCH-UHFFFAOYSA-N,CC(C)OC(=O)CCCCC(=O)OC(C)C,-3.10702897590,0.00000000000,1,G1,230.30400,2.45000,60.92400,16,4,0,4,7,94,0,0,0,0,52.60,97.30374894529,3.45767128030,197.05865002596
A-1541,"2,2,5-trimethyl-5-pentylcyclopentanone","InChI=1S/C13H24O/c1-5-6-7-8-13(4)10-9-12(2,3)11(13)14/h5-10H2,1-4H3",PUKWIVZFEZFVAT-UHFFFAOYSA-N,CCCCCC1(C)CCC(C)(C)C1=O,-4.01653371060,0.00000000000,1,G1,196.33400,3.96210,60.27100,14,1,0,1,4,82,0,1,1,1,17.07,88.27424734710,2.54587055731,217.27545260759
A-1542,cyclododecanol,"InChI=1S/C12H24O/c13-12-10-8-6-4-2-1-3-5-7-9-11-12/h12-13H,1-11H2",SFVWPXMPRCIVOK-UHFFFAOYSA-N,OC1CCCCCCCCCCC1,-3.98911772610,0.16279909355,2,G3,184.32300,3.65200,56.79380,13,1,1,1,0,78,0,1,1,1,20.23,82.54201688486,2.10795816360,99.69210414479
A-1543,"3,3,4,4,5,5,6,6,7,7,8,8,8-tridecafluorooctan-1-ol","InChI=1S/C8H5F13O/c9-3(10,1-2-22)4(11,12)5(13,14)6(15,16)7(17,18)8(19,20)21/h22H,1-2H2",GRJRKPMIRMSBNK-UHFFFAOYSA-N,OCCC(F)(F)C(F)(F)C(F)(F)C(F)(F)C(F)(F)C(F)(F)F,-4.28706402250,0.00000000000,1,G1,364.10100,4.10760,42.49280,22,1,1,14,6,134,0,0,0,0,20.23,112.24003981884,6.11259258133,395.33449529157
A-1544,"bis(2,2,6,6-tetramethylpiperidin-4-yl) decanedioate","InChI=1S/C28H52N2O4/c1-25(2)17-29-18-26(3,4)23(25)33-21(31)15-13-11-9-10-12-14-16-22(32)34-24-27(5,6)19-30-20-28(24,7)8/h23-24,29-30H,9-20H2,1-8H3",RWMYPXKVMUFMKS-UHFFFAOYSA-N,CC1(C)CNCC(C)(C)C1OC(=O)CCCCCCCCC(=O)OC2C(C)(C)CNCC2(C)C,-4.40774698950,0.00000000000,1,G1,480.73400,5.24200,137.55940,34,6,2,6,11,198,0,2,2,2,76.66,208.23088483580,1.57066571023,593.89359421970
A-1545,"1,1,5-trimethylhept-6-en-1-yl acetate","InChI=1S/C12H22O2/c1-6-10(2)8-7-9-12(4,5)14-11(3)13/h6,10H,1,7-9H2,2-5H3",BEARMGATPGLSKG-UHFFFAOYSA-N,CC(CCCC(C)(C)OC(C)=O)C=C,-4.03016412610,0.00000000000,1,G1,198.30600,3.32050,59.05700,14,2,0,2,6,82,0,0,0,0,26.30,87.33907858356,3.75216017134,194.49841012019
A-1547,"1,2-bis(2-methylpropyl) cyclohexane-1,2-dicarboxylate","InChI=1S/C16H28O4/c1-11(2)9-19-15(17)13-7-5-6-8-14(13)16(18)20-10-12(3)4/h11-14H,5-10H2,1-4H3",QUKHPBOCBWDYMW-UHFFFAOYSA-N,CC(C)COC(=O)C1CCCCC1C(=O)OCC(C)C,-4.19123513950,0.00000000000,1,G1,284.39600,3.19120,77.04200,20,4,0,4,6,116,0,1,1,1,52.60,121.75768624935,2.56373738820,290.43856189775
A-1549,"3,3,5-trimethylcyclohexyl prop-2-enoate","InChI=1S/C12H20O2/c1-5-11(13)14-10-6-9(2)7-12(3,4)8-10/h5,9-10H,1,6-8H2,2-4H3",ZMTBGVBNTHTBEC-UHFFFAOYSA-N,CC1CC(CC(C)(C)C1)OC(=O)C=C,-4.03044708530,0.00000000000,1,G1,196.29000,2.93040,56.87300,14,2,0,2,2,80,0,1,1,1,26.30,86.33324743003,2.53513345060,230.47622838889
A-1550,cyclohexyl(phenyl)methanone,"InChI=1S/C13H16O/c14-13(11-7-3-1-4-8-11)12-9-5-2-6-10-12/h1,3-4,7-8,12H,2,5-6,9-10H2",BMFYCFSWWDXEPB-UHFFFAOYSA-N,O=C(C1CCCCC1)c2ccccc2,-4.01470973460,0.00000000000,1,G1,188.27000,3.44960,57.34750,14,1,0,1,2,74,1,1,1,2,17.07,85.14168886679,2.07447401970,296.27141852542
A-1553,"tris(1,3-dichloropropan-2-yl) phosphate","InChI=1S/C9H15Cl6O4P/c10-1-7(2-11)17-20(16,18-8(3-12)4-13)19-9(5-14)6-15/h7-9H,1-6H2",ASLWPAWFJZFCKF-UHFFFAOYSA-N,ClCC(CCl)O[P](=O)(OC(CCl)CCl)OC(CCl)CCl,-4.37670497430,0.20629026745,2,G3,430.90700,4.68290,86.54550,20,4,0,11,12,122,0,0,0,0,44.76,148.36863166729,4.94720514794,242.81734999619
A-1554,"1,2,3-trichlorobenzene",InChI=1S/C6H3Cl3/c7-4-2-1-3-5(8)6(4)9/h1-3H,RELMFMZEBKVZJC-UHFFFAOYSA-N,Clc1cccc(Cl)c1Cl,-4.00348207400,0.11647605296,5,G5,181.44900,3.64680,41.47200,9,0,0,3,0,48,1,0,0,1,0.00,68.34120180014,3.24783473374,199.29299954785
A-1555,calcium bis(3-nitro-4-{[2-oxo-1-(phenylcarbamoyl)propyl]diazenyl}benzenesulfonate),"InChI=1S/2C16H14N4O7S.Ca/c2*1-10(21)15(16(22)17-11-5-3-2-4-6-11)19-18-13-8-7-12(28(25,26)27)9-14(13)20(23)24;/h2*2-9,15H,1H3,(H,17,22)(H,25,26,27);/q;;+2/p-2",VWDVUHHOWAILLC-UHFFFAOYSA-L,[Ca++].CC(=O)C(N=Nc1ccc(cc1[N+]([O-])=O)[S]([O-])(=O)=O)C(=O)Nc2ccccc2.CC(=O)C(N=Nc3ccc(cc3[N+]([O-])=O)[S]([O-])(=O)=O)C(=O)Nc4ccccc4,-4.67456212240,0.00000000000,1,G1,850.81400,3.97700,195.98660,57,18,2,25,14,292,4,0,0,4,342.46,351.84641372307,0.00000038667,2282.09760938787
A-1556,"methyl 2,4-dihydroxy-3,6-dimethylbenzoate","InChI=1S/C10H12O4/c1-5-4-7(11)6(2)9(12)8(5)10(13)14-3/h4,11-12H,1-3H3",UUQHKWMIDYRWHH-UHFFFAOYSA-N,COC(=O)c1c(C)cc(O)c(C)c1O,-4.03743092500,0.00000000000,1,G1,196.20200,1.50124,50.58510,14,4,2,4,1,76,1,0,0,1,66.76,81.75470641103,3.43721316563,382.19865512207
A-1558,sodium iodide,InChI=1S/HI.Na/h1H;/q;+1/p-1,FVAUCKIRQBBSSJ-UHFFFAOYSA-M,[Na+].[I-],1.07779604040,0.00000000000,1,G1,149.89400,-5.99200,0.00000,2,0,0,2,0,8,0,0,0,0,0.00,52.92566979925,0.00000000000,2.00000000000
A-1559,4-(4-amino-3-chlorophenyl)-2-chloroaniline dihydrochloride,"InChI=1S/C12H10Cl2N2.2ClH/c13-9-5-7(1-3-11(9)15)8-2-4-12(16)10(14)6-8;;/h1-6H,15-16H2;2*1H",BXAONUZFBUNTQR-UHFFFAOYSA-N,[H+].[H+].[Cl-].[Cl-].Nc1ccc(cc1Cl)c2ccc(N)c(Cl)c2,-3.26286953020,0.00000000000,1,G1,326.05400,-1.94220,72.94680,18,2,2,6,1,98,2,0,0,2,52.04,131.05059441744,-0.00000072250,503.47568597181
A-1562,4-methyl-1-(propan-2-yl)cyclohex-3-en-1-ol,"InChI=1S/C10H18O/c1-8(2)10(11)6-4-9(3)5-7-10/h4,8,11H,5-7H2,1-3H3",WRYLYDPHFGVWKC-UHFFFAOYSA-N,CC(C)C1(O)CCC(=CC1)C,-1.94099706970,0.32998734990,2,G3,154.25300,2.50370,47.39580,11,1,1,1,1,64,0,0,1,1,20.23,69.12252962388,2.63706742336,169.71159065163
A-1563,"1-(chloromethyl)-4-fluoro-1,4-diazabicyclo[2.2.2]octane-1,4-diium; bis(tetrafluoroboranuide)","InChI=1S/C7H14ClFN2.2BF4/c8-7-10-1-4-11(9,5-2-10)6-3-10;2*2-1(3,4)5/h1-7H2;;/q+2;2*-1",TXRPHPUGYLSHCX-UHFFFAOYSA-N,F[B-](F)(F)F.F[B-](F)(F)F.F[N+]12CC[N+](CCl)(CC1)CC2,-0.30381190230,0.00000000000,1,G1,354.26200,3.32800,61.92280,21,0,0,14,1,128,0,3,3,3,0.00,120.30730125639,0.00000034000,275.66915263332
A-1564,"1,4-dimethoxy-2-nitrobenzene","InChI=1S/C8H9NO4/c1-12-6-3-4-8(13-2)7(5-6)9(10)11/h3-5H,1-2H3",UPTOWXNJLZJTGD-UHFFFAOYSA-N,COc1ccc(OC)c(c1)[N+]([O-])=O,-3.01732508030,0.04968745985,2,G3,183.16300,1.61200,46.20040,13,4,0,5,3,70,1,0,0,1,61.60,75.04135352980,3.17552922870,323.92010728395
A-1565,3-iodoprop-2-yn-1-yl N-butylcarbamate,"InChI=1S/C8H12INO2/c1-2-3-6-10-8(11)12-7-4-5-9/h2-3,6-7H2,1H3,(H,10,11)",WYVVKGNFXHOCQV-UHFFFAOYSA-N,CCCCNC(=O)OCC#CI,-3.20333736280,0.01425379941,3,G5,281.09300,1.90860,56.05470,12,2,1,4,4,68,0,0,0,0,38.33,86.37983885467,3.25472076201,183.23221925887
A-1569,"5-nitro-2,3-dihydro-1H-1,2,4-triazol-3-one","InChI=1S/C2H2N4O3/c7-2-3-1(4-5-2)6(8)9/h(H2,3,4,5,7)",QJTIRVUEVSKJTK-UHFFFAOYSA-N,[O-][N+](=O)C1=NC(=O)NN1,-0.87862532020,0.00000000000,1,G1,130.06300,-0.99380,25.86280,9,4,2,7,1,48,1,0,0,1,104.68,47.86281089335,3.12237209752,271.34015697536
A-1570,"5-amino-6-methyl-2,3-dihydro-1H-1,3-benzodiazol-2-one","InChI=1S/C8H9N3O/c1-4-2-6-7(3-5(4)9)11-8(12)10-6/h2-3H,9H2,1H3,(H2,10,11,12)",ZCXIPVIGYBHUTQ-UHFFFAOYSA-N,Cc1cc2NC(=O)Nc2cc1N,-1.97713848190,0.12791662345,2,G3,163.18000,0.74682,48.06880,12,2,3,4,0,62,2,0,0,2,74.67,68.40823096465,2.91547488598,438.49889678519
A-1576,2-(tert-butylperoxy)-2-methylpropane,"InChI=1S/C8H18O2/c1-7(2,3)9-10-8(4,5)6/h1-6H3",LSXWFXONGKSEMY-UHFFFAOYSA-N,CC(C)(C)OOC(C)(C)C,-2.93204036960,0.11647981520,2,G3,146.23000,2.53160,41.67600,10,2,0,2,1,62,0,0,0,0,18.46,63.45023160336,3.56300175018,80.80566875783
A-1577,ethyl 3-phenylacrylate,"InChI=1S/C11H12O2/c1-2-13-11(12)9-8-10-6-4-3-5-7-10/h3-9H,2H2,1H3/b9-8+",KBEBGUQPQBELIU-CMDGGOBGSA-N,CCOC(=O)\C=C\c1ccccc1,-3.01304676380,0.00872338190,2,G3,176.21500,2.26290,52.10900,13,2,0,2,3,68,1,0,0,1,26.30,77.84157798885,2.53821433304,288.21840549260
A-1578,"sodium 2-[(4-hydroxy-9,10-dioxo-9,10-dihydroanthracen-1-yl)amino]-5-methylbenzene-1-sulfonate","InChI=1S/C21H15NO6S.Na/c1-11-6-7-14(17(10-11)29(26,27)28)22-15-8-9-16(23)19-18(15)20(24)12-4-2-3-5-13(12)21(19)25;/h2-10,22-23H,1H3,(H,26,27,28);/q;+1/p-1",GTKIEPUIFBBXJQ-UHFFFAOYSA-M,[Na+].Cc1ccc(Nc2ccc(O)c3C(=O)c4ccccc4C(=O)c23)c(c1)[S]([O-])(=O)=O,-2.40239328110,0.38375606680,2,G3,431.40100,0.12772,103.83870,30,7,2,9,3,146,3,0,1,4,123.60,194.34376248993,0.00000256000,1317.06704326440
A-1579,"2,3-dihydro-1,2-benzothiazol-3-one","InChI=1S/C7H5NOS/c9-7-5-3-1-2-4-6(5)10-8-7/h1-4H,(H,8,9)",DMSMPAJRVJJAGA-UHFFFAOYSA-N,O=C1NSc2ccccc12,-1.94728954590,0.23501306103,12,G5,151.19000,1.58960,42.44570,10,2,1,3,0,50,2,0,0,2,32.86,61.27569099158,3.07061473754,400.89835341124
A-1585,2-methyl-1-[4-(methylsulfanyl)phenyl]-2-(morpholin-4-yl)propan-1-one,"InChI=1S/C15H21NO2S/c1-15(2,16-8-10-18-11-9-16)14(17)12-4-6-13(19-3)7-5-12/h4-7H,8-11H2,1-3H3",LWRBVKNFOYUCNP-UHFFFAOYSA-N,CSc1ccc(cc1)C(=O)C(C)(C)N2CCOCC2,-4.19338114260,0.00000000000,1,G1,279.40500,2.70200,79.02450,19,4,0,4,4,104,1,1,1,2,29.54,118.86806202066,2.15465009473,435.96372569362
A-1587,Isolongifolanone,"InChI=1S/C15H24O/c1-13(2)7-6-11(16)12-14(3,4)10-5-8-15(12,13)9-10/h10,12H,5-9H2,1-4H3",VCOCESNMLNDPLX-UHFFFAOYSA-N,CC1(C)C2CCC3(C2)C1C(=O)CCC3(C)C,-4.09761221250,0.07880392670,2,G3,220.35600,3.81800,65.06700,16,1,0,1,0,90,0,3,3,3,17.07,98.99246926884,2.13755742901,352.44645225202
A-1588,"1,1-dimethylpropyl 2-(ethylperoxy)hexanoate","InChI=1S/C13H26O3/c1-6-9-10-11(7-2)12(14)15-16-13(4,5)8-3/h11H,6-10H2,1-5H3",IFXDUNDBQDXPQZ-UHFFFAOYSA-N,CCCCC(CC)C(=O)OOC(C)(C)CC,-4.11687177800,0.00000000000,1,G1,230.34800,3.86620,64.85300,16,3,0,3,8,96,0,0,0,0,35.53,99.43646427538,4.01465251846,199.35438738204
A-1591,"1,1-dimethoxycyclododecane","InChI=1S/C14H28O2/c1-15-14(16-2)12-10-8-6-4-3-5-7-9-11-13-14/h3-13H2,1-2H3",XXNCXSHVDVCRKB-UHFFFAOYSA-N,COC1(CCCCCCCCCCC1)OC,-4.12565435160,0.00000000000,1,G1,228.37600,4.28020,67.53600,16,2,0,2,2,96,0,1,1,1,18.46,100.70475782047,2.40839734960,150.11827660205
A-1599,"5-[(5-sulfanylidene-4,5-dihydro-1,3,4-thiadiazol-2-yl)disulfanyl]-2,3-dihydro-1,3,4-thiadiazole-2-thione","InChI=1S/C4H2N4S6/c9-1-5-7-3(11-1)13-14-4-8-6-2(10)12-4/h(H,5,9)(H,6,10)",DJCISYVIXPWVHY-UHFFFAOYSA-N,S=C1NN=C(SSC2=NNC(=S)S2)S1,-3.25221331480,0.00000000000,1,G1,298.49000,3.51418,66.31140,14,8,2,10,3,74,2,0,0,2,57.36,104.94846555847,2.00900367033,469.66905107771
A-1600,nonan-2-one,"InChI=1S/C9H18O/c1-3-4-5-6-7-8-9(2)10/h3-8H2,1-2H3",VKCYHJWLYTUGCC-UHFFFAOYSA-N,CCCCCCCC(C)=O,-2.93031137890,0.17332871920,2,G3,142.24200,2.93590,44.05700,10,1,0,1,6,60,0,0,0,0,17.07,63.82031004305,2.83858912181,86.72905595320
A-1601,"1-methyl-2,4-dinitrobenzene; 2-methyl-1,3-dinitrobenzene","InChI=1S/C7H6N2O4/c1-5-2-3-6(8(10)11)4-7(5)9(12)13/h2-4H,1H3",RMBFBMJGBANMMK-UHFFFAOYSA-N,Cc1ccc(cc1[N+]([O-])=O)[N+]([O-])=O,-3.04028532200,0.11143416434,3,G5,182.13500,1.81142,44.48780,13,4,0,6,2,68,1,0,0,1,86.28,73.10229667889,3.26705221236,374.75533357432