ID,Name,InChI,InChIKey,SMILES,Solubility,SD,Ocurrences,Group,MolWt,MolLogP,MolMR,HeavyAtomCount,NumHAcceptors,NumHDonors,NumHeteroatoms,NumRotatableBonds,NumValenceElectrons,NumAromaticRings,NumSaturatedRings,NumAliphaticRings,RingCount,TPSA,LabuteASA,BalabanJ,BertzCT
A-2934,"sodium 1-amino-9,10-dioxo-4-(phenylamino)-9,10-dihydroanthracene-2-sulfonate","InChI=1S/C20H14N2O5S.Na/c21-18-15(28(25,26)27)10-14(22-11-6-2-1-3-7-11)16-17(18)20(24)13-9-5-4-8-12(13)19(16)23;/h1-10,22H,21H2,(H,25,26,27);/q;+1/p-1",LIKZXCROQGHXTI-UHFFFAOYSA-M,[Na+].Nc1c(cc(Nc2ccccc2)c3C(=O)c4ccccc4C(=O)c13)[S]([O-])(=O)=O,-2.17389608770,0.00000000000,1,G1,416.39000,-0.30410,101.84930,29,7,2,9,3,140,3,0,1,4,129.39,188.52447732035,0.00000240250,1257.36323366380
A-2935,"sodium 4-chloro-3-{4-[(E)-2-[5-chloro-2-(2-chlorophenoxy)phenyl]diazen-1-yl]-3-methyl-5-oxo-4,5-dihydro-1H-pyrazol-1-yl}benzene-1-sulfonate","InChI=1S/C22H15Cl3N4O5S.Na/c1-12-21(22(30)29(28-12)18-11-14(35(31,32)33)7-8-15(18)24)27-26-17-10-13(23)6-9-20(17)34-19-5-3-2-4-16(19)25;/h2-11,21H,1H3,(H,31,32,33);/q;+1/p-1",OCJDFNKUOCKZCE-UHFFFAOYSA-M,[Na+].CC1=NN(C(=O)C1N=Nc2cc(Cl)ccc2Oc3ccccc3Cl)c4cc(ccc4Cl)[S]([O-])(=O)=O,-2.31622158490,0.00000000000,1,G1,575.79300,3.22220,131.29220,36,8,0,14,6,180,3,0,1,4,123.82,243.29850049942,0.00000360999,1500.74904900910
A-2937,N-ethyl(propan-2-yloxy)carbothioamide,"InChI=1S/C6H13NOS/c1-4-7-6(9)8-5(2)3/h5H,4H2,1-3H3,(H,7,9)",KIACEOHPIRTHMI-UHFFFAOYSA-N,CCNC(=S)OC(C)C,-1.74478878350,0.02402291860,2,G3,147.24300,1.30580,42.49570,9,2,1,3,2,54,0,0,0,0,21.26,61.58614926013,3.27119204890,93.05865002596
A-2940,"ethyl 3,4-dihydroxybenzoate","InChI=1S/C9H10O4/c1-2-13-9(12)6-3-4-7(10)8(11)5-6/h3-5,10-11H,2H2,1H3",KBPUBCVJHFXPOC-UHFFFAOYSA-N,CCOC(=O)c1ccc(O)c(O)c1,-1.85565506160,0.00000000000,1,G1,182.17500,1.27450,45.72810,13,4,2,4,2,70,1,0,0,1,66.76,75.38976429663,2.90294921113,319.39078227097
A-2942,"benzene-1,3,5-tricarboxylic acid","InChI=1S/C9H6O6/c10-7(11)4-1-5(8(12)13)3-6(2-4)9(14)15/h1-3H,(H,10,11)(H,12,13)(H,14,15)",QMKYBPDZANOJGF-UHFFFAOYSA-N,OC(=O)c1cc(cc(c1)C(O)=O)C(O)=O,-1.94229955290,0.51984977645,2,G2,210.14100,0.78120,47.31990,15,3,3,6,3,78,1,0,0,1,111.90,83.39349701941,3.38738007545,368.90868638115
A-2943,"3-(3,4-Dimethoxyphenyl)propanenitrile","InChI=1S/C11H13NO2/c1-13-10-6-5-9(4-3-7-12)8-11(10)14-2/h5-6,8H,3-4H2,1-2H3",LECKQPWCSYMCDR-UHFFFAOYSA-N,COc1ccc(CCC#N)cc1OC,-1.90134478330,0.00000000000,1,G1,191.23000,2.15998,53.48000,14,3,0,3,4,74,1,0,0,1,42.25,83.87578383196,2.85056828016,341.63103500117
A-2944,"sodium 2,5-dichloro-4-[4-[[2-[(ethylphenylamino)sulphonyl]phenyl]azo]-4,5-dihydro-3-methyl-5-oxo-1H-pyrazol-1-yl]benzenesulphonate","InChI=1S/C24H21Cl2N5O6S2.Na/c1-15-23(24(32)31(30-15)21-13-20(26)22(14-19(21)25)39(35,36)37)29-28-17-8-5-9-18(12-17)38(33,34)27-11-10-16-6-3-2-4-7-16;/h2-9,12-14,23,27H,10-11H2,1H3,(H,35,36,37);/q;+1/p-1",MOBJCMJALNXKIW-UHFFFAOYSA-M,[Na+].CC1=NN(C(=O)C1N=Nc2cccc(c2)[S](=O)(=O)NCCc3ccccc3)c4cc(Cl)c(cc4Cl)[S]([O-])(=O)=O,-2.42998099470,0.00000000000,1,G1,632.48300,1.29750,145.10070,40,9,1,16,9,204,3,0,1,4,160.76,262.92221134785,0.00000440999,1703.83917969988
A-2945,"disodium 3-[(E)-2-[2,4-bis(2-methylphenoxy)phenyl]diazen-1-yl]-4-hydroxy-5-(4-methylbenzenesulfonamido)naphthalene-2,7-disulfonate","InChI=1S/C37H31N3O11S3.2Na/c1-22-12-15-27(16-13-22)52(42,43)40-30-21-28(53(44,45)46)18-25-19-34(54(47,48)49)36(37(41)35(25)30)39-38-29-17-14-26(50-31-10-6-4-8-23(31)2)20-33(29)51-32-11-7-5-9-24(32)3;;/h4-21,38,40H,1-3H3,(H,44,45,46)(H,47,48,49);;/q;2*+1/p-2/b39-36+;;",NCGGOCRZQAFNTH-HWXVZJLZSA-L,[Na+].[Na+].Cc1ccc(cc1)[S](=O)(=O)Nc2cc(cc3C=C(C(=N/Nc4ccc(Oc5ccccc5C)cc4Oc6ccccc6C)\C(=O)c23)[S]([O-])(=O)=O)[S]([O-])(=O)=O,-2.56696907720,0.00000000000,1,G1,833.83000,0.45986,198.40310,56,13,2,19,11,278,5,0,1,6,220.49,367.71758314910,0.00000348099,2739.80991995421
A-2946,"tetrasodium 4-hydroxy-5-({4-[({4-[(8-hydroxy-3,6-disulfonato-1-naphthyl)diazenyl]-2-methoxy-5-methylphenyl}carbamoyl)amino]-5-methoxy-2-methylphenyl}diazenyl)naphthalene-2,7-disulfonate","InChI=1S/C37H32N6O17S4.4Na/c1-17-5-27(33(59-3)15-25(17)40-42-29-11-21(61(47,48)49)7-19-9-23(63(53,54)55)13-31(44)35(19)29)38-37(46)39-28-6-18(2)26(16-34(28)60-4)41-43-30-12-22(62(50,51)52)8-20-10-24(64(56,57)58)14-32(45)36(20)30;;;;/h5-16,44-45H,1-4H3,(H2,38,39,46)(H,47,48,49)(H,50,51,52)(H,53,54,55)(H,56,57,58);;;;/q;4*+1/p-4",WNQPPENQFWLADQ-UHFFFAOYSA-J,[Na+].[Na+].[Na+].[Na+].COc1cc(N=Nc2cc(cc3cc(cc(O)c23)[S]([O-])(=O)=O)[S]([O-])(=O)=O)c(C)cc1NC(=O)Nc4cc(C)c(cc4OC)N=Nc5cc(cc6cc(cc(O)c56)[S]([O-])(=O)=O)[S]([O-])(=O)=O,-2.69031368730,0.00000000000,1,G1,1048.88400,-5.85456,219.53380,68,21,4,31,12,336,6,0,0,6,378.29,475.92922802380,0.00000396749,3272.48255889607
A-2947,"octahydrocyclopenta[c]pyrrole-1,3-dione","InChI=1S/C7H9NO2/c9-6-4-2-1-3-5(4)7(10)8-6/h4-5H,1-3H2,(H,8,9,10)",QCWDCTDYSDJKTP-UHFFFAOYSA-N,O=C1NC(=O)C2CCCC12,0.15535738170,0.00000000000,1,G1,139.15400,0.05910,33.98070,10,2,1,3,0,54,0,2,2,2,46.17,58.79014779085,2.26514295761,179.78278771451
A-2948,2-(cyclohexylamino)ethane-1-sulfonic acid,"InChI=1S/C8H17NO3S.Na/c10-13(11,12)7-6-9-8-4-2-1-3-5-8;/h8-9H,1-7H2,(H,10,11,12);/q;+1/p-1",TXWKJOVDGFRVOG-UHFFFAOYSA-M,[Na+].[O-][S](=O)(=O)CCNC1CCCCC1,-0.07841855710,0.00000000000,1,G1,229.27700,-2.54210,49.43990,14,4,1,6,4,78,0,1,1,1,69.23,107.87991249144,0.00000169000,236.97094674998
A-2949,disodium sulfate,"InChI=1S/2Na.H2O4S/c;;1-5(2,3)4/h;;(H2,1,2,3,4)/q2*+1;/p-2",PMZURENOXWZQFD-UHFFFAOYSA-L,[Na+].[Na+].[O-][S]([O-])(=O)=O,0.12633376480,0.19286634578,3,G5,142.04300,-7.33000,10.47460,7,4,0,7,0,32,0,0,0,0,80.26,85.83298179715,-0.00000008000,92.85820232266
A-2950,"(8R,9S,13S,14S,17S)-17-hydroxy-13-methyl-2,4,6,7,8,9,11,12,14,15,16,17-dodecahydro-1H-cyclopenta[a]phenanthren-3-one","InChI=1S/C18H26O2/c1-18-9-8-14-13-5-3-12(19)10-11(13)2-4-15(14)16(18)6-7-17(18)20/h14-17,20H,2-10H2,1H3/t14-,15-,16+,17+,18+/m1/s1",BAZGVDKAIHZPOH-ZBRFXRBCSA-N,C[C@]12CC[C@H]3[C@@H](CCC4=C3CCC(=O)C4)[C@@H]1CC[C@@H]2O,-4.94702874400,0.00000000000,1,G1,274.40400,3.63320,78.16980,20,2,1,2,0,110,0,2,4,4,37.30,121.18609517851,1.65182095513,477.80989431187
A-2951,"2,2-bis(bromomethyl)propane-1,3-diol","InChI=1S/C5H10Br2O2/c6-1-5(2-7,3-8)4-9/h8-9H,1-4H2",CHUGKEQJSLOLHL-UHFFFAOYSA-N,OCC(CO)(CBr)CBr,-1.13040175120,0.14600087560,2,G3,261.94100,0.74720,44.19260,9,2,2,4,4,56,0,0,0,0,40.46,71.52258220109,3.82468420321,55.84847143196
A-2953,"Pyridinium, 1,1'-[(6,13-dichloro-4,11-disulfo-3,10-triphenodioxazinediyl)bis[imino-2,1-ethanediylimino[6-[(2,5-disulfophenyl)amino]-1,3,5-triazine-4,2-diyl]]]bis[3-carboxy-, dihydroxide, bis(inner salt), hexasodium salt","InChI=1S/C52H38Cl2N16O24S6.6Na/c53-35-38-42(94-40-28(60-38)8-10-30(44(40)100(90,91)92)56-14-16-58-48-64-50(68-52(66-48)70-18-2-4-24(22-70)46(73)74)62-32-20-26(96(78,79)80)6-12-34(32)98(84,85)86)36(54)37-41(35)93-39-27(59-37)7-9-29(43(39)99(87,88)89)55-13-15-57-47-63-49(67-51(65-47)69-17-1-3-23(21-69)45(71)72)61-31-19-25(95(75,76)77)5-11-33(31)97(81,82)83;;;;;;/h1-12,17-22H,13-16H2,(H12-2,55,56,57,58,59,60,61,62,63,64,65,66,67,68,71,72,73,74,75,76,77,78,79,80,81,82,83,84,85,86,87,88,89,90,91,92);;;;;;/q;6*+1/p-6",QXRUQIRSGRTEHZ-UHFFFAOYSA-H,[Na+].[Na+].[Na+].[Na+].[Na+].[Na+].[O-]C(=O)c1ccc[n+](c1)c2nc(NCCNc3ccc4N=C5C(=C6Oc7c(ccc(NCCNc8nc(Nc9cc(ccc9[S]([O-])(=O)=O)[S]([O-])(=O)=O)nc(n8)[n+]%10cccc(c%10)C([O-])=O)c7[S]([O-])(=O)=O)N=C6C(=C5Oc4c3[S]([O-])(=O)=O)Cl)Cl)nc(Nc%11cc(ccc%11[S]([O-])(=O)=O)[S]([O-])(=O)=O)n2,-0.95220480240,0.00000000000,1,G1,1666.16400,-19.25840,323.69240,106,38,6,54,24,520,9,0,2,11,623.92,740.33044045523,0.00000336110,5571.72936746825
A-2954,sodium 6-[(E)-2-(4-aminophenyl)diazen-1-yl]-5-hydroxynaphthalene-1-sulfonate,"InChI=1S/C16H13N3O4S.Na/c17-10-4-6-11(7-5-10)18-19-14-9-8-12-13(16(14)20)2-1-3-15(12)24(21,22)23;/h1-9,18H,17H2,(H,21,22,23);/q;+1/p-1/b19-14+;",AVULUSFAVFJIOG-UGAWPWHASA-M,[Na+].Nc1ccc(N\N=C\2C=Cc3c(cccc3[S]([O-])(=O)=O)C2=O)cc1,-1.29156003890,0.00000000000,1,G1,365.34600,-1.14550,89.68180,25,7,2,9,3,122,2,0,1,3,124.68,166.21160071695,0.00000225333,982.93946257887
A-2955,Aescin,"InChI=1S/C55H86O24/c1-10-23(2)46(71)79-43-44(72-24(3)60)55(22-59)26(17-50(43,4)5)25-11-12-30-51(6)15-14-32(52(7,21-58)29(51)13-16-53(30,8)54(25,9)18-31(55)61)75-49-41(77-48-38(67)36(65)34(63)28(20-57)74-48)39(68)40(42(78-49)45(69)70)76-47-37(66)35(64)33(62)27(19-56)73-47/h10-11,26-44,47-49,56-59,61-68H,12-22H2,1-9H3,(H,69,70)/b23-10+",AXNVHPCVMSNXNP-AUEPDCJTSA-N,C/C=C(\C)/C(=O)OC1C(C2(C(CC1(C)C)C3=CCC4C5(CCC(C(C5CCC4(C3(CC2O)C)C)(C)CO)OC6C(C(C(C(O6)C(=O)O)OC7C(C(C(C(O7)CO)O)O)O)O)OC8C(C(C(C(O8)CO)O)O)O)C)CO)OC(=O)C,-1.10310366750,0.00000000000,1,G1,1131.26900,-1.32110,269.01440,79,23,13,24,14,450,0,7,8,8,388.04,458.73823682738,1.11545066387,2293.58336047984
A-2956,tin(2+) ion dichloride,InChI=1S/2ClH.Sn/h2*1H;/q;;+2/p-2,AXZWODMDQAVCJE-UHFFFAOYSA-L,[Cl-].[Cl-].[Sn++],-0.02745726890,0.00000000000,1,G1,189.61700,-6.37280,5.75400,3,0,0,3,0,18,0,0,0,0,0.00,48.75314711727,0.00000000000,2.75488750216
A-2958,potassium phosphorous acid,InChI=1S/K.H3O3P/c;1-4(2)3/h;1-3H/q+1;,UUCFTYONLUTOFU-UHFFFAOYSA-N,[K+].OP(O)O,1.15240940820,0.00000000000,1,G1,121.09300,-3.80580,13.57640,5,3,3,5,0,26,0,0,0,0,60.69,73.43927102064,0.00000000000,11.60964047444
A-2959,"disodium 4-nitrobenzene-1,3-diamine 3-amino-4-methoxybenzene-1-sulfonate 3-hydroxybenzen-1-olate copper","InChI=1S/C7H9NO4S.C6H7N3O2.C6H6O2.Cu.2Na/c1-12-7-3-2-5(4-6(7)8)13(9,10)11;7-4-1-2-6(9(10)11)5(8)3-4;7-5-2-1-3-6(8)4-5;;;/h2-4H,8H2,1H3,(H,9,10,11);1-3H,7-8H2;1-4,7-8H;;;/q;;;;2*+1/p-2",HJDUSPQCBUUNBC-UHFFFAOYSA-L,[Na+].[Na+].[Cu].COc1ccc(cc1N)[S]([O-])(=O)=O.Nc2ccc(c(N)c2)[N+]([O-])=O.Oc3cccc([O-])c3,-1.50435019610,0.00000000000,1,G1,573.98200,-4.58800,114.84360,35,11,4,16,3,183,3,0,0,3,230.92,256.34791202820,-0.00000043057,1185.97015785965
A-2960,"tetrasodium 7,7'-[(6-morpholin-4-yl-1,3,5-triazine-2,4-diyl)diimino]bis{4-hydroxy-3-[(4-methoxy-2-sulfonatophenyl)diazenyl]naphthalene-2-sulfonate}","InChI=1S/C41H36N10O17S4.4Na/c1-66-25-5-9-29(31(19-25)69(54,55)56)47-49-35-33(71(60,61)62)17-21-15-23(3-7-27(21)37(35)52)42-39-44-40(46-41(45-39)51-11-13-68-14-12-51)43-24-4-8-28-22(16-24)18-34(72(63,64)65)36(38(28)53)50-48-30-10-6-26(67-2)20-32(30)70(57,58)59;;;;/h3-10,15-20,47-48H,11-14H2,1-2H3,(H,54,55,56)(H,57,58,59)(H,60,61,62)(H,63,64,65)(H2,42,43,44,45,46);;;;/q;4*+1/p-4/b49-35-,50-36+;;;;",RYOLKKOXNWDTKY-KCQDMBLDSA-J,[Na+].[Na+].[Na+].[Na+].COc1ccc(N\N=C\2C(=O)c3ccc(Nc4nc(Nc5ccc6C(=O)C(=N/Nc7ccc(OC)cc7[S]([O-])(=O)=O)/C(=Cc6c5)[S]([O-])(=O)=O)nc(n4)N8CCOCC8)cc3C=C2[S]([O-])(=O)=O)c(c1)[S]([O-])(=O)=O,-1.82528275140,0.00000000000,1,G1,1156.98800,-9.86220,250.34760,76,27,4,35,15,376,5,1,3,8,405.38,521.55323579963,0.00000312049,3503.90203174637
A-2961,"trisodium 5-oxo-1-(4-sulfonatophenyl)-4-[(E)-2-(4-sulfonatophenyl)diazen-1-yl]-4,5-dihydro-1H-pyrazole-3-carboxylate","InChI=1S/C16H12N4O9S2.3Na/c21-15-13(18-17-9-1-5-11(6-2-9)30(24,25)26)14(16(22)23)19-20(15)10-3-7-12(8-4-10)31(27,28)29;;;/h1-8,13H,(H,22,23)(H,24,25,26)(H,27,28,29);;;/q;3*+1/p-3",UJMBCXLDXJUMFB-UHFFFAOYSA-K,[Na+].[Na+].[Na+].[O-]C(=O)C1=NN(c2ccc(cc2)[S]([O-])(=O)=O)C(=O)C1N=Nc3ccc(cc3)[S]([O-])(=O)=O,-0.50499640120,0.00000000000,1,G1,534.37100,-9.88820,97.04240,34,12,0,18,6,162,2,0,1,3,211.92,259.62925349091,0.00000363000,1330.78772639143
A-2962,(2S)-2-aminopropanoic acid,"InChI=1S/C3H7NO2/c1-2(4)3(5)6/h2H,4H2,1H3,(H,5,6)",QNAYBMKLOCPYGJ-UHFFFAOYSA-N,CC(N)C(O)=O,0.26789861560,0.02394930780,2,G3,89.09400,-0.58180,21.28520,6,2,2,3,1,36,0,0,0,0,63.32,35.76478180588,3.25758616123,59.81353752813
A-2966,"disodium 3-[(E)-2-(5-chloro-2-phenoxyphenyl)diazen-1-yl]-4-hydroxy-5-(4-methylbenzenesulfonamido)naphthalene-2,7-disulfonate","InChI=1S/C29H22ClN3O10S3.2Na/c1-17-7-10-21(11-8-17)44(35,36)33-24-16-22(45(37,38)39)13-18-14-26(46(40,41)42)28(29(34)27(18)24)32-31-23-15-19(30)9-12-25(23)43-20-5-3-2-4-6-20;;/h2-16,31,33H,1H3,(H,37,38,39)(H,40,41,42);;/q;2*+1/p-2/b32-28+;;",UHSRCNCAJFUQHB-RTFAEJQKSA-L,[Na+].[Na+].Cc1ccc(cc1)[S](=O)(=O)Nc2cc(cc3C=C(C(=N/Nc4cc(Cl)ccc4Oc5ccccc5)\C(=O)c23)[S]([O-])(=O)=O)[S]([O-])(=O)=O,-0.66793068610,0.00000000000,1,G1,748.12400,-1.29588,167.42310,48,12,2,19,9,238,4,0,1,5,211.26,325.12032571162,0.00000312500,2284.66358589603
A-2967,2-[benzyl(tert-butyl)amino]-1-[4-hydroxy-3-(hydroxymethyl)phenyl]ethan-1-one hydrochloride,"InChI=1S/C20H25NO3.ClH/c1-20(2,3)21(12-15-7-5-4-6-8-15)13-19(24)16-9-10-18(23)17(11-16)14-22;/h4-11,22-23H,12-14H2,1-3H3;1H",QXNITHCPVLQQEN-UHFFFAOYSA-N,[H+].[Cl-].CC(C)(C)N(CC(=O)c1ccc(O)c(CO)c1)Cc2ccccc2,-1.34877654910,0.00000000000,1,G1,363.88500,0.48440,96.07710,25,4,2,5,6,136,2,0,0,2,60.77,156.55574913742,0.00000312500,701.94763612332
A-2968,"1,3,3-trimethyl-2-[(1E)-[2-methyl-2-(4-methylphenyl)hydrazin-1-ylidene]methyl]-3H-indol-1-ium chloride","InChI=1S/C20H24N3.ClH/c1-15-10-12-16(13-11-15)23(5)21-14-19-20(2,3)17-8-6-7-9-18(17)22(19)4;/h6-14H,1-5H3;1H/q+1;/p-1",XNBDPEPVMIIATO-UHFFFAOYSA-M,[Cl-].CN(N=CC1=[N+](C)c2ccccc2C1(C)C)c3ccc(C)cc3,-1.32921880530,0.00000000000,1,G1,341.88600,1.12722,98.39340,24,2,0,4,3,126,2,0,1,3,18.61,150.28588248851,0.00000208333,788.78618968215
A-2969,cyclohexanone oxime,"InChI=1S/C6H11NO/c8-7-6-4-2-1-3-5-6/h8H,1-5H2",VEZUQRBDRNJBJY-UHFFFAOYSA-N,ON=C1CCCCC1,-0.84957295610,0.03278187103,3,G5,113.16000,1.78070,32.30650,8,2,1,2,0,46,0,1,1,1,32.59,49.20172518382,2.33187564930,90.70165766734
A-2970,"hexasodium 4-amino-3,6-bis[(E)-2-[5-({4-chloro-6-[(3-sulfonatophenyl)amino]-1,3,5-triazin-2-yl}amino)-2-sulfonatophenyl]diazen-1-yl]-5-hydroxynaphthalene-2,7-disulfonate","InChI=1S/C40H29Cl2N15O19S6.6Na/c41-35-48-37(44-18-3-1-5-22(13-18)77(59,60)61)52-39(50-35)46-20-7-9-26(79(65,66)67)24(15-20)54-56-32-28(81(71,72)73)11-17-12-29(82(74,75)76)33(34(58)30(17)31(32)43)57-55-25-16-21(8-10-27(25)80(68,69)70)47-40-51-36(42)49-38(53-40)45-19-4-2-6-23(14-19)78(62,63)64;;;;;;/h1-16,55H,43H2,(H,59,60,61)(H,62,63,64)(H,65,66,67)(H,68,69,70)(H,71,72,73)(H,74,75,76)(H2,44,46,48,50,52)(H2,45,47,49,51,53);;;;;;/q;6*+1/p-6/b56-54?,57-33-;;;;;;",UILQUTBIXJZSTN-NZHDPOKYSA-H,[Na+].[Na+].[Na+].[Na+].[Na+].[Na+].Nc1c(N=Nc2cc(Nc3nc(Cl)nc(Nc4cccc(c4)[S]([O-])(=O)=O)n3)ccc2[S]([O-])(=O)=O)c(cc5C=C(/C(=N/Nc6cc(Nc7nc(Cl)nc(Nc8cccc(c8)[S]([O-])(=O)=O)n7)ccc6[S]([O-])(=O)=O)C(=O)c15)[S]([O-])(=O)=O)[S]([O-])(=O)=O,-0.95720551680,0.00000000000,1,G1,1418.95800,-14.56960,276.48160,88,34,6,48,18,428,7,0,1,8,560.86,640.27789682939,0.00000440055,4727.61653114731
A-2971,(2S)-pyrrolidine-2-carboxylic acid,"InChI=1S/C5H9NO2/c7-5(8)4-2-1-3-6-4/h4,6H,1-3H2,(H,7,8)",ONIBWKKTOPOVIA-UHFFFAOYSA-N,OC(=O)C1CCCN1,1.12913564920,0.46695758810,3,G5,115.13200,-0.17700,28.66050,8,2,2,3,1,46,0,1,1,1,49.33,47.69880636773,2.34993673878,96.60179219723
A-2972,calcium bis(phosphinate),"InChI=1S/Ca.2HO2P/c;2*1-3-2/h;2*(H,1,2)/q+2;;/p-2",LITFOGPYONJRNO-UHFFFAOYSA-L,[Ca++].[O-]P=O.[O-]P=O,-0.03264492050,0.05948191290,2,G3,166.02200,-1.27400,20.96700,7,4,0,7,0,36,0,0,0,0,80.26,73.49733556504,-0.00000004000,30.67103446306
A-2973,azanium; 2-[3-[bis(2-oxido-2-oxoethyl)amino]propyl-(2-oxido-2-oxoethyl)amino]acetate; iron(+3) cation,"InChI=1S/C11H18N2O8.Fe.H3N/c14-8(15)4-12(5-9(16)17)2-1-3-13(6-10(18)19)7-11(20)21;;/h1-7H2,(H,14,15)(H,16,17)(H,18,19)(H,20,21);;1H3/q;+3;/p-3",HXPRIPOCSQBZIN-UHFFFAOYSA-K,[NH4+].[Fe+3].[O-]C(=O)CN(CCCN(CC([O-])=O)CC([O-])=O)CC([O-])=O,0.10500562200,0.00000000000,1,G1,376.12300,-6.64620,63.50980,23,10,1,12,12,133,0,0,0,0,203.50,142.46273355733,-0.00000200000,338.73283873868
A-2975,"disodium 4,4'-bis[(4-anilino-6-methoxy-1,3,5-triazin-2-yl)amino]stilbene-2,2'-disulphonate","InChI=1S/C34H30N10O8S2.2Na/c1-51-33-41-29(35-23-9-5-3-6-10-23)39-31(43-33)37-25-17-15-21(27(19-25)53(45,46)47)13-14-22-16-18-26(20-28(22)54(48,49)50)38-32-40-30(42-34(44-32)52-2)36-24-11-7-4-8-12-24;;/h3-20H,1-2H3,(H,45,46,47)(H,48,49,50)(H2,35,37,39,41,43)(H2,36,38,40,42,44);;/q;2*+1/p-2/b14-13+;;",BDYOOAPDMVGPIQ-QDBORUFSSA-L,[Na+].[Na+].COc1nc(Nc2ccccc2)nc(Nc3ccc(\C=C\c4ccc(Nc5nc(Nc6ccccc6)nc(OC)n5)cc4[S]([O-])(=O)=O)c(c3)[S]([O-])(=O)=O)n1,-1.76151014820,0.00000000000,1,G1,814.77400,-0.96520,196.51120,56,18,4,22,14,276,6,0,0,6,258.32,365.31553791985,0.00000348099,2382.23421528616
A-2976,"sodium 7-amino-8-[(E)-2-{4-chloro-3-[(2,4-dimethylphenyl)sulfamoyl]phenyl}diazen-1-yl]-3-sulfonaphthalen-1-olate","InChI=1S/C24H21ClN4O6S2.Na/c1-13-3-8-20(14(2)9-13)29-36(31,32)22-11-16(5-6-18(22)25)27-28-24-19(26)7-4-15-10-17(37(33,34)35)12-21(30)23(15)24;/h3-12,26-29H,1-2H3,(H,33,34,35);/q;+1/p-1",NFIWAOOZVZVNHC-UHFFFAOYSA-M,[Na+].Cc1ccc(N[S](=O)(=O)c2cc(NNC3=C4C(=O)C=C(C=C4C=CC3=N)[S]([O-])(=O)=O)ccc2Cl)c(C)c1,-0.63087131750,0.00000000000,1,G1,583.02300,0.46001,139.69780,38,9,4,14,7,192,2,0,2,4,168.35,246.67040168494,0.00000399999,1710.82011358171
A-2977,sodium 4-[(2-hydroxy-1-naphthyl)diazenyl]-3-methylbenzenesulfonate,"InChI=1S/C17H14N2O4S.Na/c1-11-10-13(24(21,22)23)7-8-15(11)18-19-17-14-5-3-2-4-12(14)6-9-16(17)20;/h2-10,18H,1H3,(H,21,22,23);/q;+1/p-1/b19-17+;",SIHMAENIPOJURU-ZJSKVYKZSA-M,[Na+].Cc1cc(ccc1N\N=C2\C(=O)C=Cc3ccccc23)[S]([O-])(=O)=O,-0.43660043040,0.00000000000,1,G1,364.35800,-0.68478,89.78490,25,6,1,8,3,122,2,0,1,3,98.66,167.23665213433,0.00000225333,997.45748177977
A-2980,"disodium 5-acetamido-4-hydroxy-3-[(E)-2-phenyldiazen-1-yl]naphthalene-2,7-disulfonate","InChI=1S/C18H15N3O8S2.2Na/c1-10(22)19-14-9-13(30(24,25)26)7-11-8-15(31(27,28)29)17(18(23)16(11)14)21-20-12-5-3-2-4-6-12;;/h2-9,20H,1H3,(H,19,22)(H,24,25,26)(H,27,28,29);;/q;2*+1/p-2/b21-17+;;",YCUAAHNYYJTUJO-PJPLBZAPSA-L,[Na+].[Na+].CC(=O)Nc1cc(cc2C=C(\C(=N/Nc3ccccc3)C(=O)c12)[S]([O-])(=O)=O)[S]([O-])(=O)=O,-0.58660844750,0.00000000000,1,G1,509.42900,-4.89240,108.21330,33,10,2,15,5,162,2,0,1,3,184.96,233.35501416513,0.00000272250,1372.89987371580
A-2981,"N,N-dimethylcyclohexanamine","InChI=1S/C8H17N/c1-9(2)8-6-4-3-5-7-8/h8H,3-7H2,1-2H3",SVYKKECYCPFKGB-UHFFFAOYSA-N,CN(C)C1CCCCC1,-0.97748814230,0.00000000000,1,G1,127.23100,1.88070,40.56000,9,1,0,1,1,54,0,1,1,1,3.24,58.04784834528,2.22836211494,72.63682062300
A-2982,dilithium(1+) ion carbonate,"InChI=1S/CH2O3.2Li/c2-1(3)4;;/h(H2,2,3,4);;/q;2*+1/p-2",XGZVUEUWXADBQD-UHFFFAOYSA-L,[Li+].[Li+].[O-]C([O-])=O,-0.75464231430,0.09483203310,2,G3,73.89000,-8.43900,5.39600,6,3,0,5,0,24,0,0,0,0,63.19,59.08437168413,-0.00000004500,31.77443751082
A-2983,disodium 6-acetamido-4-hydroxy-3-[(4-{[2-(sulfonatooxy)ethyl]sulfonyl}phenyl)diazenyl]naphthalene-2-sulfonate,"InChI=1S/C20H19N3O11S3.2Na/c1-12(24)21-15-3-2-13-10-18(36(28,29)30)19(20(25)17(13)11-15)23-22-14-4-6-16(7-5-14)35(26,27)9-8-34-37(31,32)33;;/h2-7,10-11,22H,8-9H2,1H3,(H,21,24)(H,28,29,30)(H,31,32,33);;/q;2*+1/p-2/b23-19+;;",AAGPPJSKCWSVCQ-GHEHHKQRSA-L,[Na+].[Na+].CC(=O)Nc1ccc2C=C(\C(=N/Nc3ccc(cc3)[S](=O)(=O)CCO[S]([O-])(=O)=O)C(=O)c2c1)[S]([O-])(=O)=O,-0.67940750260,0.00000000000,1,G1,617.54700,-5.54600,127.95210,39,13,2,19,9,198,2,0,1,3,228.33,268.03284588128,0.00000380250,1653.92433911049
A-2984,"hydrogen [4-[[4-(diethylamino)phenyl][4-[ethyl(3-sulphonatobenzyl)amino]phenyl]methylene]cyclohexa-2,5-dien-1-ylidene](ethyl)(3-sulphonatobenzyl)ammonium, sodium salt","InChI=1S/C41H45N3O6S2.Na/c1-5-42(6-2)36-21-15-33(16-22-36)41(34-17-23-37(24-18-34)43(7-3)29-31-11-9-13-39(27-31)51(45,46)47)35-19-25-38(26-20-35)44(8-4)30-32-12-10-14-40(28-32)52(48,49)50;/h9-28H,5-8,29-30H2,1-4H3,(H-,45,46,47,48,49,50);/q;+1/p-1",FJBHGWADYLMEJG-UHFFFAOYSA-M,[Na+].CCN(CC)c1ccc(cc1)[C+](c2ccc(cc2)N(CC)Cc3cccc(c3)[S]([O-])(=O)=O)c4ccc(cc4)N(CC)Cc5cccc(c5)[S]([O-])(=O)=O,-0.77170268990,0.00000000000,1,G1,761.94200,4.41719,205.69440,53,9,0,12,16,272,5,0,0,5,124.12,336.62431585552,0.00000627198,2030.44868052735
A-2985,(6-aminohexyl)carbamic acid,"InChI=1S/C7H16N2O2/c8-5-3-1-2-4-6-9-7(10)11/h9H,1-6,8H2,(H,10,11)",HDIHOAXFFROQHR-UHFFFAOYSA-N,NCCCCCCNC(O)=O,-0.09529880490,0.00000000000,1,G1,160.21700,0.77310,43.54990,11,2,3,4,6,66,0,0,0,0,75.35,66.77441244707,2.84976128223,106.61369602228