ID,Name,InChI,InChIKey,SMILES,Solubility,SD,Ocurrences,Group,MolWt,MolLogP,MolMR,HeavyAtomCount,NumHAcceptors,NumHDonors,NumHeteroatoms,NumRotatableBonds,NumValenceElectrons,NumAromaticRings,NumSaturatedRings,NumAliphaticRings,RingCount,TPSA,LabuteASA,BalabanJ,BertzCT
A-1602,"Phosphorodithioic acid, mixed O,O-bis(iso-Bu and pentyl) esters, zinc salts","InChI=1S/2C8H19O2PS2.Zn/c2*1-7(2)5-9-11(12,13)10-6-8(3)4;/h2*7-8H,5-6H2,1-4H3,(H,12,13);/q;;+2/p-2",CFGBPGNQMWYJPH-UHFFFAOYSA-L,[Zn++].CC(C)CO[P]([S-])(=S)OCC(C)C.CC(C)CO[P]([S-])(=S)OCC(C)C,-2.51924833470,0.00000000000,1,G1,548.06600,6.20350,126.46000,27,8,0,11,12,160,0,0,0,0,36.92,200.95054112111,-0.00000041143,380.13621014940
A-1606,4-[(3-hydroxypropyl)amino]-3-nitrophenol,"InChI=1S/C9H12N2O4/c12-5-1-4-10-8-3-2-7(13)6-9(8)11(14)15/h2-3,6,10,12-13H,1,4-5H2",VTXBLQLZQLHDIL-UHFFFAOYSA-N,OCCCNc1ccc(O)cc1[N+]([O-])=O,-2.11058971030,0.02516413880,2,G3,212.20500,1.09470,54.95370,15,5,3,6,5,82,1,0,0,1,95.63,86.31753487319,2.81200659645,353.96562282285
A-1608,ethyl 2-methyl-4-oxo-6-pentylcyclohex-2-ene-1-carboxylate,"InChI=1S/C15H24O3/c1-4-6-7-8-12-10-13(16)9-11(3)14(12)15(17)18-5-2/h9,12,14H,4-8,10H2,1-3H3",ZJLHQWGPVWXKME-UHFFFAOYSA-N,CCCCCC1CC(=O)C=C(C)C1C(=O)OCC,-3.18716634500,0.00000000000,1,G1,252.35400,3.28130,71.13600,18,3,0,3,6,102,0,0,1,1,43.37,109.58959587326,2.73559200496,330.63041546733
A-1611,"8-[(4-amino-3-nitrophenyl)diazenyl]-7-hydroxy-N,N,N-trimethylnaphthalen-2-aminium chloride","InChI=1S/C19H19N5O3.ClH/c1-24(2,3)14-7-4-12-5-9-18(25)19(15(12)11-14)22-21-13-6-8-16(20)17(10-13)23(26)27;/h4-11H,1-3H3,(H2-,20,21,22,25);1H",CMPPYVDBIJWGCB-UHFFFAOYSA-N,[Cl-].C[N+](C)(C)c1ccc2C=CC(=O)C(=N/Nc3ccc(N)c(c3)[N+]([O-])=O)\c2c1,-1.39724241960,0.00000000000,1,G1,401.85400,-0.21020,107.71750,28,6,2,9,4,146,2,0,1,3,110.62,168.04026555923,0.00000280333,1009.11406991575
A-1612,"1,2-xylene","InChI=1S/C8H10/c1-7-5-3-4-6-8(7)2/h3-6H,1-2H3",CTQNGGLPUBDAKN-UHFFFAOYSA-N,Cc1ccccc1C,-2.81916776010,0.03217336627,5,G5,106.16800,2.30344,35.91600,8,0,0,0,0,42,1,0,0,1,0.00,50.16128734829,3.13486151135,156.14811391900
A-1614,"1,4-xylene","InChI=1S/C8H10/c1-7-3-5-8(2)6-4-7/h3-6H,1-2H3",URLKBWYHVLBVBO-UHFFFAOYSA-N,Cc1ccc(C)cc1,-2.81916776010,0.03217336627,5,G5,106.16800,2.30344,35.91600,8,0,0,0,0,42,1,0,0,1,0.00,50.16128734829,3.03245553203,138.89811391900
A-1617,"2,3,4,5,6,7-hexahydro-1H-isoindole-1,3-dione","InChI=1S/C8H9NO2/c10-7-5-3-1-2-4-6(5)8(11)9-7/h1-4H2,(H,9,10,11)",AFJWMGOTLUUGHF-UHFFFAOYSA-N,O=C1NC(=O)C2=C1CCCC2,-1.97451772600,0.00000000000,1,G1,151.16500,0.51340,38.64370,11,2,1,3,0,58,0,0,2,2,46.17,64.46548687306,2.39926194083,239.26562344024
A-1619,2-phenylethyl 2-methylpropanoate,"InChI=1S/C12H16O2/c1-10(2)12(13)14-9-8-11-6-4-3-5-7-11/h3-7,10H,8-9H2,1-2H3",JDQVBGQWADMTAM-UHFFFAOYSA-N,CC(C)C(=O)OCCc1ccccc1,-3.07976443750,0.03910844398,3,G5,192.25800,2.42830,55.94300,14,2,0,2,4,76,1,0,0,1,26.30,84.89612313543,2.25750722899,277.63302033026
A-1620,"4-(2,6,6-trimethylcyclohex-1-en-1-yl)but-3-en-2-one","InChI=1S/C13H20O/c1-10-6-5-9-13(3,4)12(10)8-7-11(2)14/h7-8H,5-6,9H2,1-4H3/b8-7+",PSQYTAPXSHCGMF-BQYQJAHWSA-N,CC(=O)/C=C/C1=C(C)CCCC1(C)C,-3.07986381840,0.08304457790,3,G5,192.30200,3.65820,60.15300,14,1,0,1,2,78,0,0,1,1,17.07,86.89504128273,2.96127747124,292.35742381696
A-1623,"N,N-dimethyldecan-1-amine","InChI=1S/C12H27N/c1-4-5-6-7-8-9-10-11-12-13(2)3/h4-12H2,1-3H3",YWWNNLPSZSEZNZ-UHFFFAOYSA-N,CCCCCCCCCCN(C)C,-4.04528783460,0.19503369280,2,G3,185.35500,3.68870,61.16400,13,1,0,1,9,80,0,0,0,0,3.24,84.51344795640,2.83540615609,89.12526634449
A-1624,ethyl 3-[(diisopropoxyphosphorothioyl)sulfanyl]propanoate,"InChI=1S/C11H23O4PS2/c1-6-13-11(12)7-8-18-16(17,14-9(2)3)15-10(4)5/h9-10H,6-8H2,1-5H3",PMWHATAFABINDH-UHFFFAOYSA-N,CCOC(=O)CCS[P](=S)(OC(C)C)OC(C)C,-4.27477849810,0.00000000000,1,G1,314.40900,3.74730,80.43500,18,6,0,7,9,108,0,0,0,0,44.76,119.05578245393,4.24706358099,280.76779993835
A-1626,4-Tricyclodecylidene butanal,"InChI=1S/C14H20O/c15-7-2-1-4-10-8-11-9-14(10)13-6-3-5-12(11)13/h4,7,11-14H,1-3,5-6,8-9H2/b10-4+",WFEISWUNAJPLRX-ONNFQVAWSA-N,O=CCC\C=C1/CC2CC1C3CCCC23,-4.09018791270,0.00000000000,1,G1,204.31300,3.34800,60.42600,15,1,0,1,3,82,0,3,3,3,17.07,91.93792412226,1.69743542168,291.71382576183
A-1627,2-methyloctane-2-thiol,"InChI=1S/C9H20S/c1-4-5-6-7-8-9(2,3)10/h10H,4-8H2,1-3H3",MPBLPZLNKKGCGP-UHFFFAOYSA-N,CCCCCCC(C)(C)S,-3.99016010940,0.19451755130,3,G5,160.32600,3.66520,51.82400,10,1,1,1,5,62,0,0,0,0,0.00,70.81385460640,3.04375840897,71.28767654159
A-1628,"3,7-dimethyloct-6-en-1-yl formate","InChI=1S/C11H20O2/c1-10(2)5-4-6-11(3)7-8-13-9-12/h5,9,11H,4,6-8H2,1-3H3",DZNVIZQPWLDQHI-UHFFFAOYSA-N,CC(CCOC=O)CCC=C(C)C,-4.05596083230,0.00000000000,1,G1,184.27900,2.93200,54.46200,13,2,0,2,7,76,0,0,0,0,26.30,80.97413646916,3.34314823859,157.47321404168
A-1629,O-(4-bromo-2-chlorophenyl) O-ethyl S-propyl thiophosphate,"InChI=1S/C11H15BrClO3PS/c1-3-7-18-17(14,15-4-2)16-11-6-5-9(12)8-10(11)13/h5-6,8H,3-4,7H2,1-2H3",QYMMJNLHFKGANY-UHFFFAOYSA-N,CCCS[P](=O)(OCC)Oc1ccc(Br)cc1Cl,-4.36562283800,0.12016607765,2,G3,373.63600,5.76910,81.76150,18,4,0,7,7,102,1,0,0,1,35.53,124.98865304785,2.85100326269,444.29654363604
A-1630,zinc bis(dinonylnaphthalenesulphonate),"InChI=1S/2C28H44O3S.Zn/c2*1-3-5-7-9-11-13-15-19-24-23-25-20-17-18-22-27(25)28(32(29,30)31)26(24)21-16-14-12-10-8-6-4-2;/h2*17-18,20,22-23H,3-16,19,21H2,1-2H3,(H,29,30,31);/q;;+2/p-2",COGHWIKGZJHSAG-UHFFFAOYSA-L,[Zn++].CCCCCCCCCc1cc2ccccc2c(c1CCCCCCCCC)[S]([O-])(=O)=O.CCCCCCCCCc3cc4ccccc4c(c3CCCCCCCCC)[S]([O-])(=O)=O,-4.78842421940,0.03488722104,3,G5,984.82200,16.65770,270.61040,65,6,0,9,34,360,4,0,0,4,114.40,410.13617372348,0.00000044000,1963.26109445149
A-1634,2-methyldecanal,"InChI=1S/C11H22O/c1-3-4-5-6-7-8-9-11(2)10-12/h10-11H,3-9H2,1-2H3",LBICMZLDYMBIGA-UHFFFAOYSA-N,CCCCCCCCC(C)C=O,-4.02708446450,0.24742501085,2,G3,170.29600,3.57200,53.22100,12,1,0,1,8,72,0,0,0,0,17.07,76.55019427184,2.94794842507,99.17723487531
A-1635,"dimethyl 2,5-dioxocyclohexane-1,4-dicarboxylate","InChI=1S/C10H12O6/c1-15-9(13)5-3-8(12)6(4-7(5)11)10(14)16-2/h5-6H,3-4H2,1-2H3",MHKKFFHWMKEBDW-UHFFFAOYSA-N,COC(=O)C1CC(=O)C(CC1=O)C(=O)OC,-4.15419565740,0.00000000000,1,G1,228.20000,-0.50320,50.26000,16,6,0,6,2,88,0,1,1,1,86.74,91.89107776306,2.78382291962,311.21841725182
A-1636,2-(chloromethyl)oxirane; 4-[2-(4-hydroxyphenyl)propan-2-yl]phenol; 2-methyloxirane,"InChI=1S/C15H16O2.C3H5ClO.C3H6O/c1-15(2,11-3-7-13(16)8-4-11)12-5-9-14(17)10-6-12;4-1-3-2-5-3;1-3-2-4-3/h3-10,16-17H,1-2H3;3H,1-2H2;3H,2H2,1H3",ZAZDSNWVKSFFLI-UHFFFAOYSA-N,CC1CO1.CC(C)(c2ccc(O)cc2)c3ccc(O)cc3.ClCC4CO4,-4.37440003780,0.00000000000,1,G1,378.89600,4.45280,104.21560,26,4,2,5,3,142,2,2,2,4,65.52,159.89180054542,0.00000021779,611.91536220270
A-1637,zinc(2+) ion selenite,"InChI=1S/H2O3Se.Zn/c1-4(2)3;/h(H2,1,2,3);/q;+2/p-2",PEUPCBAALXHYHP-UHFFFAOYSA-L,[Zn++].[O-][Se]([O-])=O,-4.07996543440,0.00000000000,1,G1,192.34700,-2.88010,6.44050,5,3,0,5,0,26,0,0,0,0,63.19,46.49720042984,0.00000000000,29.87430298093
A-1638,"3-methyl-N-nitro-3,6-dihydro-2H-1,3,5-oxadiazin-4-amine","InChI=1S/C4H8N4O3/c1-7-3-11-2-5-4(7)6-8(9)10/h2-3H2,1H3,(H,5,6)",GAYLOVDFGKQKCJ-UHFFFAOYSA-N,CN1COCN=C1N[N+]([O-])=O,-1.00229232770,0.00000000000,1,G1,160.13300,-0.99930,36.14710,11,5,1,7,1,62,0,0,1,1,80.00,62.76992152940,2.53327085787,191.77619205955
A-1639,"(2R,3R,4S,5R)-2-(6-hydroxy-9H-purin-9-yl)-5-(hydroxymethyl)oxolane-3,4-diol","InChI=1S/C10H12N4O5/c15-1-4-6(16)7(17)10(19-4)14-3-13-5-8(14)11-2-12-9(5)18/h2-4,6-7,10,15-17H,1H2,(H,11,12,18)",UGQMRVRMYYASKQ-UHFFFAOYSA-N,OCC1OC(C(O)C1O)n2cnc3C(=O)N=CNc23,-1.22984864350,0.00000000000,1,G1,268.22900,-2.26890,61.15810,19,8,4,9,2,102,2,1,1,3,133.49,105.66779150627,2.06004936242,652.65258477052
A-1640,"2,3,6-trimethylphenol","InChI=1S/C9H12O/c1-6-4-5-7(2)9(10)8(6)3/h4-5,10H,1-3H3",QQOMQLYQAXGHSU-UHFFFAOYSA-N,Cc1ccc(C)c(O)c1C,-1.93550088830,0.02318437130,2,G3,136.19400,2.31746,42.31780,10,1,1,1,0,54,1,0,0,1,20.23,61.32046321488,3.34215380777,224.15033336358
A-1643,"1,3-xylene","InChI=1S/C8H10/c1-7-4-3-5-8(2)6-7/h3-6H,1-2H3",IVSZLXZYQVIEFR-UHFFFAOYSA-N,Cc1cccc(C)c1,-2.83286903780,0.07518123796,6,G5,106.16800,2.30344,35.91600,8,0,0,0,0,42,1,0,0,1,0.00,50.16128734829,3.07766043797,159.89811391900
A-1646,2-octanamidoacetic acid,"InChI=1S/C10H19NO3/c1-2-3-4-5-6-7-9(12)11-8-10(13)14/h2-8H2,1H3,(H,11,12)(H,13,14)",SAVLIIGUQOSOEP-UHFFFAOYSA-N,CCCCCCCC(=O)NCC(O)=O,-2.11153759250,0.00000000000,1,G1,201.26600,1.54770,54.02150,14,2,2,4,8,82,0,0,0,0,66.40,84.69087019329,3.22476634031,180.20592425326
A-1647,"(1,5,5-trimethyl-6-bicyclo[2.2.1]heptanyl) acetate","InChI=1S/C12H20O2/c1-8(13)14-10-11(2,3)9-5-6-12(10,4)7-9/h9-10H,5-7H2,1-4H3",JUWUWIGZUVEFQB-UHFFFAOYSA-N,CC(=O)OC1C(C)(C)C2CCC1(C)C2,-3.87459688370,0.00000000000,1,G1,196.29000,2.76430,54.78300,14,2,0,2,1,80,0,2,2,2,26.30,86.01701930868,2.25154346981,264.74040703322
A-1648,Dioxosilane,InChI=1S/O2Si/c1-3-2,VYPSYNLAJGMNEJ-UHFFFAOYSA-N,O=[Si]=O,-3.60266757840,0.40694436147,3,G5,60.08400,-0.61840,7.12700,3,2,0,3,0,16,0,0,0,0,34.14,19.40222479243,3.26598632371,23.77443751082
A-1650,(2S)-2-{[(benzyloxy)carbonyl]amino}-2-cyclohexylacetic acid,"InChI=1S/C16H21NO4/c18-15(19)14(13-9-5-2-6-10-13)17-16(20)21-11-12-7-3-1-4-8-12/h1,3-4,7-8,13-14H,2,5-6,9-11H2,(H,17,20)(H,18,19)/t14-/m0/s1",CUSYTUPJAYLNFQ-AWEZNQCLSA-N,OC(=O)[C@@H](NC(=O)OCc1ccccc1)C2CCCCC2,-3.28543360320,0.00000000000,1,G1,291.34700,2.94630,77.76150,21,3,2,5,5,114,1,1,1,2,75.63,123.85567847533,1.84428134048,468.42513729525
A-1651,"(4E)-3-methyl-5-(2,6,6-trimethylcyclohex-1-en-1-yl)penta-1,4-dien-3-ol","InChI=1S/C15H24O/c1-6-15(5,16)11-9-13-12(2)8-7-10-14(13,3)4/h6,9,11,16H,1,7-8,10H2,2-5H3/b11-9+",PZGYHDPZANRCSM-PKNBQFBNSA-N,CC1=C(/C=C/C(C)(O)C=C)C(C)(C)CCC1,-3.16414793300,0.00000000000,1,G1,220.35600,4.00620,70.29280,16,1,1,1,3,90,0,0,1,1,20.23,99.56803413150,2.98095549938,329.34411427090
A-1652,methyl oct-2-ynoate,"InChI=1S/C9H14O2/c1-3-4-5-6-7-8-9(10)11-2/h3-6H2,1-2H3",FRLZQXRXIKQFNS-UHFFFAOYSA-N,CCCCCC#CC(=O)OC,-3.00913277360,0.00000000000,1,G1,154.20900,1.74310,43.93400,11,2,0,2,3,62,0,0,0,0,26.30,67.93308066441,3.32337954656,162.13688408103
A-1654,manganese(2+) ion diphosphinate,"InChI=1S/Mn.2HO2P/c;2*1-3-2/h;2*(H,1,2)/q+2;;/p-2",FLFJVPPJGJSHMF-UHFFFAOYSA-L,[Mn++].[O-]P=O.[O-]P=O,-0.08130409230,0.00000000000,1,G1,180.88200,-0.89570,15.21300,7,4,0,7,0,41,0,0,0,0,80.26,53.97718784203,-0.00000004000,30.67103446306
A-1662,"1,2-dimethyl-3-nitrobenzene","InChI=1S/C8H9NO2/c1-6-4-3-5-8(7(6)2)9(10)11/h3-5H,1-2H3",FVHAWXWFPBPFOS-UHFFFAOYSA-N,Cc1cccc(c1C)[N+]([O-])=O,-3.00335998930,0.05395269870,2,G3,151.16500,2.21164,42.57040,11,2,0,3,1,58,1,0,0,1,43.14,64.81426307079,3.27358082154,294.14357423079
A-1665,phenyl 2-hydroxybenzoate,"InChI=1S/C13H10O3/c14-12-9-5-4-8-11(12)13(15)16-10-6-2-1-3-7-10/h1-9,14H",ZQBAKBUEJOMQEX-UHFFFAOYSA-N,Oc1ccccc1C(=O)Oc2ccccc2,-3.15476875590,0.00000000000,1,G1,214.22000,2.61140,59.50730,16,3,1,3,2,80,2,0,0,2,46.53,92.92274052170,2.18681134576,491.54071015476
A-1668,"3,7-dimethyloct-6-en-1-yl acetate","InChI=1S/C12H22O2/c1-10(2)6-5-7-11(3)8-9-14-12(4)13/h6,11H,5,7-9H2,1-4H3",JOZKFWLRHCDGJA-UHFFFAOYSA-N,CC(CCOC(C)=O)CCC=C(C)C,-4.09593873020,0.00000000000,1,G1,198.30600,3.32210,59.07900,14,2,0,2,6,82,0,0,0,0,26.30,87.33907858356,3.41126511082,190.49841012019
A-1669,"3,3,4,4,5,5,6,6,6-nonafluorohex-1-ene","InChI=1S/C6H3F9/c1-2-3(7,8)4(9,10)5(11,12)6(13,14)15/h2H,1H2",GVEUEBXMTMZVSD-UHFFFAOYSA-N,FC(F)(F)C(F)(F)C(F)(F)C(F)(F)C=C,-4.19793760070,0.00000000000,1,G1,246.07200,3.64060,31.09300,15,0,0,9,3,90,0,0,0,0,0.00,77.36417719396,5.47454477489,247.81840902932
A-1670,2-phenylethyl 2-phenylacetate,"InChI=1S/C16H16O2/c17-16(13-15-9-5-2-6-10-15)18-12-11-14-7-3-1-4-8-14/h1-10H,11-13H2",ZOZIRNMDEZKZHM-UHFFFAOYSA-N,O=C(Cc1ccccc1)OCCc2ccccc2,-4.18874779270,0.07520654405,2,G3,240.30200,3.01500,71.25100,18,2,0,2,5,92,2,0,0,2,26.30,107.22333311270,1.72577723640,476.96485152089
A-1672,"2-({2,2-bis[(prop-2-enoyloxy)methyl]butoxy}methyl)-2-[(prop-2-enoyloxy)methyl]butyl prop-2-enoate","InChI=1S/C24H34O9/c1-7-19(25)30-15-23(11-5,16-31-20(26)8-2)13-29-14-24(12-6,17-32-21(27)9-3)18-33-22(28)10-4/h7-10H,1-4,11-18H2,5-6H3",XRMBQHTWUBGQDN-UHFFFAOYSA-N,CCC(COCC(CC)(COC(=O)C=C)COC(=O)C=C)(COC(=O)C=C)COC(=O)C=C,-4.49278552430,0.00000000000,1,G1,466.52700,2.71260,120.89100,33,9,0,9,18,184,0,0,0,0,114.43,194.58832207792,5.50437478797,615.44653609121
A-1674,"(2,4,6-trioxo-1,3,5-triazine-1,3,5(2H,4H,6H)-triyl)tri-2,1-ethanediyl triacrylate","InChI=1S/C18H21N3O9/c1-4-13(22)28-10-7-19-16(25)20(8-11-29-14(23)5-2)18(27)21(17(19)26)9-12-30-15(24)6-3/h4-6H,1-3,7-12H2",YIJYFLXQHDOQGW-UHFFFAOYSA-N,C=CC(=O)OCCN1C(=O)N(CCOC(=O)C=C)C(=O)N(CCOC(=O)C=C)C1=O,-2.45141946240,0.00000000000,1,G1,423.37800,-1.64070,102.69000,30,12,0,12,12,162,1,0,0,1,144.90,169.43535243030,3.23880085951,854.37853619657
A-1676,"Octanoic acid, ester with 1,2,3-propanetriol","InChI=1S/C8H16O2.C3H8O3/c1-2-3-4-5-6-7-8(9)10;4-1-3(6)2-5/h2-7H2,1H3,(H,9,10);3-6H,1-2H2",SQABAALQCGKFFO-UHFFFAOYSA-N,CCCCCCCC(O)=O.OCC(O)CO,-3.20000078110,0.00000000000,1,G1,236.30800,0.76340,61.19020,16,4,4,5,8,98,0,0,0,0,97.99,96.73296043415,0.00000000000,145.31034832306
A-1677,4-isopropylbenzonitrile,"InChI=1S/C10H11N/c1-8(2)10-5-3-9(7-11)4-6-10/h3-6,8H,1-2H3",YFDJCWXBKWRDPW-UHFFFAOYSA-N,CC(C)c1ccc(cc1)C#N,-2.98879530270,0.00000000000,1,G1,145.20500,2.68168,45.24600,11,1,0,1,1,56,1,0,0,1,23.79,67.28375125855,2.93890455390,263.91940577975
A-1678,"1,2-bis(prop-2-en-1-yl) benzene-1,2-dicarboxylate","InChI=1S/C14H14O4/c1-3-9-17-13(15)11-7-5-6-8-12(11)14(16)18-10-4-2/h3-8H,1-2,9-10H2",QUDWYFHPNIMBFC-UHFFFAOYSA-N,C=CCOC(=O)c1ccccc1C(=O)OCC=C,-3.22113568680,0.28625059892,4,G5,246.26200,2.37220,67.40100,18,4,0,4,6,94,1,0,0,1,52.60,105.52186862940,2.90770995714,419.61672525206
A-1679,"1,3-diphenylguanidine","InChI=1S/C13H13N3/c14-13(15-11-7-3-1-4-8-11)16-12-9-5-2-6-10-12/h1-10H,(H3,14,15,16)",OWRCNXZUPFZXOS-UHFFFAOYSA-N,NC(Nc1ccccc1)=Nc2ccccc2,-2.15751638630,1.06778803708,8,G4,211.26800,2.74490,67.78910,16,1,2,3,2,80,2,0,0,2,50.41,94.63851480644,2.09092837507,463.05108429853
A-1680,2-methylpropane-2-thiol,"InChI=1S/C4H10S/c1-4(2,3)5/h5H,1-3H3",WMXCDAVJEZZYLT-UHFFFAOYSA-N,CC(C)(C)S,-1.78784586750,0.00000000000,1,G1,90.19100,1.71470,28.73900,5,1,1,1,0,32,0,0,0,0,0.00,38.98914403442,3.02371578407,19.11941547876
A-1685,"3,3,5-trimethylcyclohexanol","InChI=1S/C9H18O/c1-7-4-8(10)6-9(2,3)5-7/h7-8,10H,4-6H2,1-3H3",BRRVXFOKWJKTGG-UHFFFAOYSA-N,CC1CC(O)CC(C)(C)C1,-1.99165984790,0.04695225145,2,G3,142.24200,2.19350,42.80280,10,1,1,1,0,60,0,1,1,1,20.23,63.44719054167,2.50993888363,105.89667380415
A-1686,"N,N-dimethylaniline","InChI=1S/C8H11N/c1-9(2)8-6-4-3-5-7-8/h3-7H,1-2H3",JLTDJTHDQAWBAV-UHFFFAOYSA-N,CN(C)c1ccccc1,-1.92207369740,0.04109337810,2,G3,121.18300,1.75260,40.76900,9,1,0,1,1,48,1,0,0,1,3.24,55.92112101849,2.84823405060,167.18232643414
A-1687,"1-chloro-2,5-dimethoxy-4-nitrobenzene","InChI=1S/C8H8ClNO4/c1-13-7-4-6(10(11)12)8(14-2)3-5(7)9/h3-4H,1-2H3",ORLPGMKKCAEWOW-UHFFFAOYSA-N,COc1cc(c(OC)cc1Cl)[N+]([O-])=O,-3.17931236530,0.00000000000,1,G1,217.60800,2.26540,51.21040,14,4,0,6,3,76,1,0,0,1,61.60,85.34461975669,3.31965630580,366.60406633371
A-1688,potassium iodide,InChI=1S/HI.K/h1H;/q;+1/p-1,NLKNQRATVPKPDG-UHFFFAOYSA-M,[K+].[I-],0.93522271700,0.09243107311,3,G5,166.00200,-5.99200,0.00000,2,0,0,2,0,8,0,0,0,0,0.00,73.43483487190,0.00000000000,2.00000000000
A-1689,"N-octyl-1-{10-[4-(octylimino)-1,4-dihydropyridin-1-yl]decyl}-1,4-dihydropyridin-4-imine dihydrochloride","InChI=1S/C36H62N4.2ClH/c1-3-5-7-9-15-19-27-37-35-23-31-39(32-24-35)29-21-17-13-11-12-14-18-22-30-40-33-25-36(26-34-40)38-28-20-16-10-8-6-4-2;;/h23-26,31-34H,3-22,27-30H2,1-2H3;2*1H",SMGTYJPMKXNQFY-UHFFFAOYSA-N,[H+].[H+].[Cl-].[Cl-].CCCCCCCCN=C1C=CN(CCCCCCCCCCN2C=CC(C=C2)=NCCCCCCCC)C=C1,-1.64278626580,0.00000000000,1,G1,623.84200,3.86600,175.63600,42,4,0,6,25,242,2,0,0,2,34.58,273.90265945077,-0.00000420250,874.09644975316
A-1690,(2E)-3-phenylprop-2-enal,InChI=1S/C9H8O/c10-8-4-7-9-5-2-1-3-6-9/h1-8H/b7-4+,KJPRLNWUNMBNBZ-QPJJXVBHSA-N,O=C/C=C/c1ccccc1,-1.96881825780,0.11882527602,3,G5,132.16200,1.89870,41.54000,10,1,0,1,2,50,1,0,0,1,17.07,59.99814853055,2.75876700062,223.74339906010
A-1692,"1,1,2,2,3,3,4,4,4-nonafluoro-N-(2-hydroxyethyl)-N-methylbutane-1-sulfonamide","InChI=1S/C7H8F9NO3S/c1-17(2-3-18)21(19,20)7(15,16)5(10,11)4(8,9)6(12,13)14/h18H,2-3H2,1H3",DSRUAYIFDCHEEV-UHFFFAOYSA-N,CN(CCO)[S](=O)(=O)C(F)(F)C(F)(F)C(F)(F)C(F)(F)F,-3.40368504250,0.00000000000,1,G1,357.19400,1.66600,49.53160,21,3,1,14,6,128,0,0,0,0,57.61,111.73356565536,6.01649711381,472.22317634456
A-1693,"N-[(8E)-1,5-dimethylbicyclo[3.2.1]octan-8-ylidene]hydroxylamine","InChI=1S/C10H17NO/c1-9-4-3-5-10(2,7-6-9)8(9)11-12/h12H,3-7H2,1-2H3",RADAAKRXEPVXBU-UHFFFAOYSA-N,CC12CCCC(C)(CC1)C2=NO,-3.07415220710,0.00000000000,1,G1,167.25200,2.80690,48.52050,12,2,1,2,0,68,0,2,2,2,32.59,73.65566248787,2.41958559336,215.99307854852
A-1694,N-(4-hydroxyphenyl)acetamide,"InChI=1S/C8H9NO2/c1-6(10)9-7-2-4-8(11)5-3-7/h2-5,11H,1H3,(H,9,10)",RZVAJINKPMORJF-UHFFFAOYSA-N,CC(=O)Nc1ccc(O)cc1,-1.03332321270,0.07931628566,3,G5,151.16500,1.35060,42.41050,11,2,2,3,1,58,1,0,0,1,49.33,64.66690538414,2.73629807211,253.29949758389
A-1699,(e)-But-2-enedioate,"InChI=1S/C4H4O4.Fe/c5-3(6)1-2-4(7)8;/h1-2H,(H,5,6)(H,7,8);/q;+2/p-2/b2-1-;",PMVSDNDAUGGCCE-ODZAUARKSA-L,[Fe++].[O-]C(=O)\C=C/C([O-])=O,-2.08406789940,0.00000000000,1,G1,169.90100,-2.96010,19.15400,9,4,0,5,2,50,0,0,0,0,80.26,61.65160631554,0.00000000000,123.50306161549
A-1700,"(2E)-1-(2,6,6-trimethylcyclohex-2-en-1-yl)but-2-en-1-one","InChI=1S/C13H20O/c1-5-7-11(14)12-10(2)8-6-9-13(12,3)4/h5,7-8,12H,6,9H2,1-4H3/b7-5+",CRIGTVCBMUKRSL-FNORWQNLSA-N,C/C=C/C(=O)C1C(=CCCC1(C)C)C,-3.13785576540,0.00000000000,1,G1,192.30200,3.51410,60.08300,14,1,0,1,2,78,0,0,1,1,17.07,86.89504128273,2.96731834950,281.61068830948
A-1701,2-methyl-4-nitroaniline,"InChI=1S/C7H8N2O2/c1-5-4-6(9(10)11)2-3-7(5)8/h2-4H,8H2,1H3",XTTIQGSLJBWVIV-UHFFFAOYSA-N,Cc1cc(ccc1N)[N+]([O-])=O,-3.03615248410,0.00000000000,1,G1,152.15300,1.48542,42.24580,11,3,1,4,1,58,1,0,0,1,69.16,63.78921165341,3.15154966831,296.49208977639
A-1702,nonan-1-ol,"InChI=1S/C9H20O/c1-2-3-4-5-6-7-8-9-10/h10H,2-9H2,1H3",ZWRUINPWMLAQRD-UHFFFAOYSA-N,CCCCCCCCCO,-3.01301187110,0.43522045964,4,G5,144.25800,2.72930,45.07880,10,1,1,1,7,62,0,0,0,0,20.23,64.45302169520,2.64760484894,44.68995593589
A-1703,"dipropyl cyclohexane-1,2-dicarboxylate","InChI=1S/C14H24O4/c1-3-9-17-13(15)11-7-5-6-8-12(11)14(16)18-10-4-2/h11-12H,3-10H2,1-2H3",AGEFUZCBLJQXIA-UHFFFAOYSA-N,CCCOC(=O)C1CCCCC1C(=O)OCCC,-3.26269173270,0.00000000000,1,G1,256.34200,2.69920,67.94800,18,4,0,4,6,104,0,1,1,1,52.60,109.02780202056,2.55262070293,246.96755675238
A-1704,"2-(4-aminophenyl)-6-methyl-1,3-benzothiazole-7-sulfonic acid","InChI=1S/C14H12N2O3S2/c1-8-2-7-11-12(13(8)21(17,18)19)20-14(16-11)9-3-5-10(15)6-4-9/h2-7H,15H2,1H3,(H,17,18,19)",KGZUHYIHYBDNLC-UHFFFAOYSA-N,Cc1ccc2nc(sc2c1[S](O)(=O)=O)c3ccc(N)cc3,-4.33249946160,0.00000000000,1,G1,320.39500,3.10062,84.02000,21,5,2,7,2,108,3,0,0,3,93.28,125.36364193010,2.27913197550,928.75756603658
A-1705,"1,4-dioxacycloheptadecane-5,17-dione",InChI=1S/C15H26O4/c16-14-10-8-6-4-2-1-3-5-7-9-11-15(17)19-13-12-18-14/h1-13H2,XRHCAGNSDHCHFJ-UHFFFAOYSA-N,O=C1CCCCCCCCCCCC(=O)OCCO1,-4.26169517930,0.16776796308,4,G5,270.36900,3.37750,72.70500,19,4,0,4,0,110,0,1,1,1,52.60,115.39274413495,2.21624489167,236.87118893813
A-1707,5-chloro-2-(4-chlorophenoxy)phenol,"InChI=1S/C12H8Cl2O2/c13-8-1-4-10(5-2-8)16-12-6-3-9(14)7-11(12)15/h1-7,15H",BYNQFCJOHGOKSS-UHFFFAOYSA-N,Oc1cc(Cl)ccc1Oc2ccc(Cl)cc2,-4.23939312390,0.11887187140,3,G5,255.10000,4.49130,64.64280,16,2,1,4,2,82,2,0,0,2,29.46,103.00280876103,2.23381711774,494.87198897978
A-1708,"(3E)-3,7-dimethylocta-1,3,6-triene","InChI=1S/C10H16/c1-5-10(4)8-6-7-9(2)3/h5,7-8H,1,6H2,2-4H3/b10-8+",IHPKGUQCSIINRJ-CSKARUKUSA-N,CC(C)=CC\C=C(/C)C=C,-3.97293025720,0.00000000000,1,G1,136.23800,3.47500,48.00200,10,0,0,0,3,56,0,0,0,0,0.00,63.95492096085,3.73527276413,154.87712379549