ID,Name,InChI,InChIKey,SMILES,Solubility,SD,Ocurrences,Group,MolWt,MolLogP,MolMR,HeavyAtomCount,NumHAcceptors,NumHDonors,NumHeteroatoms,NumRotatableBonds,NumValenceElectrons,NumAromaticRings,NumSaturatedRings,NumAliphaticRings,RingCount,TPSA,LabuteASA,BalabanJ,BertzCT
A-2873,"4-[(3S)-3-ethenyl-3,7-dimethylocta-1,6-dienyl]phenol","InChI=1S/C18H24O/c1-5-18(4,13-6-7-15(2)3)14-12-16-8-10-17(19)11-9-16/h5,7-12,14,19H,1,6,13H2,2-4H3/b14-12+/t18-/m1/s1",LFYJSSARVMHQJB-QIXNEVBVSA-N,CC(C)=CCC[C@@](C)(C=C)\C=C\c1ccc(O)cc1,-6.33701738120,0.00000000000,1,G1,256.38900,5.34410,84.10980,19,1,1,1,6,102,1,0,0,1,20.23,116.53613314790,2.71032782733,460.96857978204
A-2874,sodium oxidooxy-oxoborane hydrate,InChI=1S/BHO3.Na.H2O/c2-1-4-3;;/h3H;;1H2/q;+1;/p-1,MDGXUEVTGARGDK-UHFFFAOYSA-M,O.[Na+].[O-]OB=O,-0.82310020100,0.00000000000,1,G1,99.81400,-5.57770,11.13930,6,3,0,6,1,30,0,0,0,0,80.86,57.30518369595,-0.00000004500,21.50977500433
A-2875,(3-methoxy-3-methylbutyl) acetate,"InChI=1S/C8H16O3/c1-7(9)11-6-5-8(2,3)10-4/h5-6H2,1-4H3",RYNQKSJRFHJZTK-UHFFFAOYSA-N,COC(C)(C)CCOC(C)=O,-0.43902919790,0.00000000000,1,G1,160.21300,1.36460,42.33800,11,3,0,3,4,66,0,0,0,0,35.53,67.68245838766,3.45198558196,129.29886030285
A-2876,Chromic phosphate,"InChI=1S/Cr.H3O4P/c;1-5(2,3)4/h;(H3,1,2,3,4)/q+3;/p-3",IKZBVTPSNGOVRJ-UHFFFAOYSA-K,[Cr+3].[O-][P]([O-])([O-])=O,0.48599563970,0.00000000000,1,G1,146.96600,-2.82710,7.60650,6,4,0,6,0,35,0,0,0,0,86.25,45.18013383648,0.00000000000,53.68367439558
A-2879,"disodium 2-amino-4,6-dinitrophenol 4-nitroaniline 8-{2-[(1E)-2-oxido-4-oxocyclohexa-2,5-dien-1-ylidene]hydrazin-1-yl}-3,6-disulfonaphthalen-1-olate iron","InChI=1S/C16H12N2O9S2.C6H5N3O5.C6H6N2O2.Fe.2Na/c19-9-1-2-12(14(20)5-9)17-18-13-6-10(28(22,23)24)3-8-4-11(29(25,26)27)7-15(21)16(8)13;7-4-1-3(8(11)12)2-5(6(4)10)9(13)14;7-5-1-3-6(4-2-5)8(9)10;;;/h1-7,18,20-21H,(H,22,23,24)(H,25,26,27);1-2,10H,7H2;1-4H,7H2;;;/q;;;;2*+1/p-2/b17-12+;;;;;",VKGDLXPXGUTJRE-JEZQZZQZSA-L,[Na+].[Na+].[Fe].Nc1ccc(cc1)[N+]([O-])=O.Nc2cc(cc(c2O)[N+]([O-])=O)[N+]([O-])=O.OC/3=CC(=O)C=CC3=N/Nc4cc(cc5cc(cc(O)c45)[S]([O-])(=O)=O)[S]([O-])(=O)=O,-1.30754652480,0.11251102504,3,G5,877.46800,-3.32440,180.79250,56,20,6,28,7,286,4,0,1,5,398.01,368.32147798449,0.00000093438,2497.27049203776
A-2880,"octasodium 2,2'-{1,4-phenylenebis[imino(6-chloro-1,3,5-triazine-4,2-diyl)imino(8-hydroxy-3,6-disulfonatonaphthalene-7,1-diyl)diazene-2,1-diyl]}dinaphthalene-1,5-disulfonate","InChI=1S/C52H34Cl2N14O26S8.8Na/c53-47-59-49(63-51(61-47)57-41-37(99(83,84)85)17-21-15-25(95(71,72)73)19-33(39(21)43(41)69)67-65-31-13-11-27-29(45(31)101(89,90)91)3-1-5-35(27)97(77,78)79)55-23-7-9-24(10-8-23)56-50-60-48(54)62-52(64-50)58-42-38(100(86,87)88)18-22-16-26(96(74,75)76)20-34(40(22)44(42)70)68-66-32-14-12-28-30(46(32)102(92,93)94)4-2-6-36(28)98(80,81)82;;;;;;;;/h1-20,69-70H,(H,71,72,73)(H,74,75,76)(H,77,78,79)(H,80,81,82)(H,83,84,85)(H,86,87,88)(H,89,90,91)(H,92,93,94)(H2,55,57,59,61,63)(H2,56,58,60,62,64);;;;;;;;/q;8*+1/p-8",ODAJTFUSCNWRHZ-UHFFFAOYSA-F,[Na+].[Na+].[Na+].[Na+].[Na+].[Na+].[Na+].[Na+].Oc1c(Nc2nc(Cl)nc(Nc3ccc(Nc4nc(Cl)nc(Nc5c(O)c6c(cc(cc6N=Nc7ccc8c(cccc8[S]([O-])(=O)=O)c7[S]([O-])(=O)=O)[S]([O-])(=O)=O)cc5[S]([O-])(=O)=O)n4)cc3)n2)c(cc9cc(cc(N=Nc%10ccc%11c(cccc%11[S]([O-])(=O)=O)c%10[S]([O-])(=O)=O)c19)[S]([O-])(=O)=O)[S]([O-])(=O)=O,-0.63486841100,0.00000000000,1,G1,1774.21400,-17.54260,340.42600,110,40,6,58,20,530,11,0,0,11,672.96,807.44280381209,0.00000391999,6221.16675564864
A-2881,benzyldimethyltetradecylazanium chloride,"InChI=1S/C23H42N.ClH/c1-4-5-6-7-8-9-10-11-12-13-14-18-21-24(2,3)22-23-19-16-15-17-20-23;/h15-17,19-20H,4-14,18,21-22H2,1-3H3;1H/q+1;/p-1",OCBHHZMJRVXXQK-UHFFFAOYSA-M,[Cl-].CCCCCCCCCCCCCC[N+](C)(C)Cc1ccccc1,-0.95312178540,1.07476840486,5,G4,368.04900,3.96810,108.19940,25,0,0,2,15,146,1,0,0,1,0.00,163.75831747359,0.00000575999,388.33908051555
A-2882,nickel(2+) difluoride,InChI=1S/2FH.Ni/h2*1H;/q;;+2/p-2,DBJLJFTWODWSOF-UHFFFAOYSA-L,[F-].[F-].[Ni++],-0.38331707730,0.00000000000,1,G1,96.68900,-5.99450,0.00000,3,0,0,3,0,24,0,0,0,0,0.00,26.87255630842,0.00000000000,2.75488750216
A-2885,"(2,5-dioxoimidazolidin-4-yl)urea","InChI=1S/C4H6N4O3/c5-3(10)6-1-2(9)8-4(11)7-1/h1H,(H3,5,6,10)(H2,7,8,9,11)",POJWUDADGALRAB-UHFFFAOYSA-N,NC(=O)NC1NC(=O)NC1=O,-1.50878248570,0.05186884029,3,G5,158.11700,-2.17980,33.18150,11,3,4,7,1,60,0,1,1,1,113.32,61.30228976546,2.53443867308,225.37706033746
A-2887,disodium 7-benzamido-4-hydroxy-3-[(E)-2-{4-[(E)-2-(4-sulfonatophenyl)diazen-1-yl]phenyl}diazen-1-yl]naphthalene-2-sulfonate,"InChI=1S/C29H21N5O8S2.2Na/c35-28-25-15-12-23(30-29(36)18-4-2-1-3-5-18)16-19(25)17-26(44(40,41)42)27(28)34-33-21-8-6-20(7-9-21)31-32-22-10-13-24(14-11-22)43(37,38)39;;/h1-17,33H,(H,30,36)(H,37,38,39)(H,40,41,42);;/q;2*+1/p-2/b32-31?,34-27-;;",OTPBDPKSNGORHR-ATQPHANLSA-L,[Na+].[Na+].[O-][S](=O)(=O)c1ccc(cc1)N=Nc2ccc(N\N=C\3C(=O)c4ccc(NC(=O)c5ccccc5)cc4C=C3[S]([O-])(=O)=O)cc2,-2.15667644760,0.00000000000,1,G1,675.61200,-1.18310,158.92280,46,12,2,17,8,222,4,0,1,5,209.68,307.55103830735,0.00000288000,2087.73301213065
A-2888,sodium 7-amino-8-[(E)-2-[2-(benzenesulfonyl)phenyl]diazen-1-yl]-3-sulfonaphthalen-1-olate,"InChI=1S/C22H17N3O6S2.Na/c23-17-11-10-14-12-16(33(29,30)31)13-19(26)21(14)22(17)25-24-18-8-4-5-9-20(18)32(27,28)15-6-2-1-3-7-15;/h1-13,23-25H,(H,29,30,31);/q;+1/p-1",BGMJITJZTOJVQD-UHFFFAOYSA-M,[Na+].[O-][S](=O)(=O)C1=CC(=O)C2=C(NNc3ccccc3[S](=O)(=O)c4ccccc4)C(=N)C=CC2=C1,-2.08883167610,0.00000000000,1,G1,505.50900,-0.77823,119.85710,34,9,3,12,6,168,2,0,2,4,156.32,217.95201153503,0.00000323999,1523.22198139177
A-2889,bis(tetrakis(hydroxymethyl)phosphanium) sulfate,"InChI=1S/2C4H12O4P.H2O4S/c2*5-1-9(2-6,3-7)4-8;1-5(2,3)4/h2*5-8H,1-4H2;(H2,1,2,3,4)/q2*+1;/p-2",YIEDHPBKGZGLIK-UHFFFAOYSA-L,OC[P+](CO)(CO)CO.OC[P+](CO)(CO)CO.[O-][S]([O-])(=O)=O,1.96751269960,0.00000000000,1,G1,406.28300,-3.73160,81.00100,23,12,8,15,8,144,0,0,0,0,242.10,134.46041271227,-0.00000027302,293.05263615815
A-2891,oxetan-2-one,InChI=1S/C3H4O2/c4-3-1-2-5-3/h1-2H2,VEZXCJBBBCKRPI-UHFFFAOYSA-N,O=C1CCO1,0.71048938610,0.00000000000,1,G1,72.06300,-0.06670,15.57600,5,2,0,2,0,28,0,1,1,1,26.30,29.73837143264,2.32240504959,51.91340299823
A-2892,potassium {[(3-methylbutyl)sulfanyl]carbonyl}sulfanide,"InChI=1S/C6H12OS2.K/c1-5(2)3-4-7-6(8)9;/h5H,3-4H2,1-2H3,(H,8,9);/q;+1/p-1",CMXOFNZFIJEFDA-UHFFFAOYSA-M,[K+].CC(C)CCOC([S-])=S,0.23788972320,0.00000000000,1,G1,202.38500,-1.11510,45.37000,10,3,0,4,3,54,0,0,0,0,9.23,116.11391843529,0.00000000000,95.74860596185
A-2893,N-phenyl-N-(piperidin-4-yl)propanamide,"InChI=1S/C14H20N2O/c1-2-14(17)16(12-6-4-3-5-7-12)13-8-10-15-11-9-13/h3-7,13,15H,2,8-11H2,1H3/p+1",PMCBDBWCQQBSRJ-UHFFFAOYSA-O,CCC(=O)N(C1CC[NH2+]CC1)c2ccccc2,-0.83522550840,0.00000000000,1,G1,233.33500,1.15540,68.90040,17,1,1,3,3,92,1,1,1,2,36.92,102.81632683500,2.21164434285,357.74477608966
A-2894,sodium 2-(morpholin-4-yl)ethane-1-sulfonate,"InChI=1S/C6H13NO4S.Na/c8-12(9,10)6-3-7-1-4-11-5-2-7;/h1-6H2,(H,8,9,10);/q;+1/p-1",IRHWMYKYLWNHTL-UHFFFAOYSA-M,[Na+].[O-][S](=O)(=O)CCN1CCOCC1,0.18852974540,0.00000000000,1,G1,217.22200,-4.13220,41.82320,13,5,0,7,3,72,0,1,1,1,69.67,100.47354497875,0.00000144000,224.78875082024
A-2895,"1,3-dihydroxypropan-2-yl octanoate 2,3-dihydroxypropyl octanoate","InChI=1S/C11H22O4/c1-2-3-4-5-6-7-11(14)15-9-10(13)8-12/h10,12-13H,2-9H2,1H3",GHBFNMLVSPCDGN-UHFFFAOYSA-N,CCCCCCCC(=O)OCC(O)CO,0.17947413050,0.00000000000,1,G1,218.29300,1.24330,57.42760,15,4,2,4,9,90,0,0,0,0,66.76,91.25220700574,3.25768430338,158.66691118104
A-2896,trisodium bis[2-hydroxy-5-nitro-3-[[2-oxo-1-[(phenylamino)carbonyl]propyl]azo]benzenesulphonato(3-)]cobaltate(3-),"InChI=1S/2C16H14N4O8S.Co.3Na/c2*1-9(21)14(16(23)17-10-5-3-2-4-6-10)19-18-12-7-11(20(24)25)8-13(15(12)22)29(26,27)28;;;;/h2*2-8H,1H3,(H4,17,18,19,21,22,23,26,27,28);;;;/q;;+3;3*+1/p-6",YZBZIKJBLDYACB-UHFFFAOYSA-H,[Na+].[Na+].[Na+].[Co+3].CC(=O)\C(=N/Nc1cc(cc(c1[O-])[S]([O-])(=O)=O)[N+]([O-])=O)C(=O)[N-]c2ccccc2.CC(=O)\C(=N/Nc3cc(cc(c3[O-])[S]([O-])(=O)=O)[N+]([O-])=O)C(=O)[N-]c4ccccc4,-0.47470402710,0.00000000000,1,G1,966.60500,-6.66770,193.42460,62,20,2,30,14,310,4,0,0,4,392.06,426.81643127226,0.00000000000,2430.12184439641
A-2897,"disodium 4-amino-5-hydroxy-3-[(E)-2-(4-nitrophenyl)diazen-1-yl]-6-[(E)-2-phenyldiazen-1-yl]naphthalene-2,7-disulfonate","InChI=1S/C22H16N6O9S2.2Na/c23-19-18-12(11-17(39(35,36)37)21(22(18)29)27-24-13-4-2-1-3-5-13)10-16(38(32,33)34)20(19)26-25-14-6-8-15(9-7-14)28(30)31;;/h1-11,24H,23H2,(H,32,33,34)(H,35,36,37);;/q;2*+1/p-2/b26-25?,27-21+;;",HKBVRFLHNUEVRO-DWTBGCDMSA-L,[Na+].[Na+].Nc1c(N=Nc2ccc(cc2)[N+]([O-])=O)c(cc3C=C(\C(=N/Nc4ccccc4)C(=O)c13)[S]([O-])(=O)=O)[S]([O-])(=O)=O,-1.28005950040,0.00000000000,1,G1,616.50100,-2.94500,135.59440,41,14,2,19,7,200,3,0,1,4,249.74,276.41048412275,0.00000294000,1829.14411113157
A-2898,lithium(1+) ion benzoate,"InChI=1S/C7H6O2.Li/c8-7(9)6-4-2-1-3-5-6;/h1-5H,(H,8,9);/q;+1/p-1",LDJNSLOKTFFLSL-UHFFFAOYSA-M,[Li+].[O-]C(=O)c1ccccc1,0.39091062190,0.00000000000,1,G1,128.05600,-2.94590,30.77250,10,2,0,3,1,46,1,0,0,1,40.13,71.04966661207,0.00000081000,208.10590854015
A-2901,"3-[(1R,3R)-3-[(dimethylcarbamoylamino)methyl]-3,5,5-trimethylcyclohexyl]-1,1-dimethylurea","InChI=1S/C16H32N4O2/c1-15(2)8-12(18-14(22)20(6)7)9-16(3,10-15)11-17-13(21)19(4)5/h12H,8-11H2,1-7H3,(H,17,21)(H,18,22)/t12-,16+/m1/s1",UZEZQRZYPITAFY-WBMJQRKESA-N,CN(C)C(=O)NC[C@@]1(C)C[C@@H](CC(C)(C)C1)NC(=O)N(C)C,-1.89381875290,0.00000000000,1,G1,312.45800,2.11380,88.83140,22,2,2,6,3,128,0,1,1,1,64.68,134.14998749796,2.73016367758,420.36886868128
A-2902,disodium 7-[(E)-2-(6-amino-1-hydroxy-3-sulfonatonaphthalen-2-yl)diazen-1-yl]-4-hydroxy-3-[(E)-2-phenyldiazen-1-yl]naphthalene-2-sulfonate,"InChI=1S/C26H19N5O8S2.2Na/c27-16-6-8-19-14(10-16)12-21(40(34,35)36)24(25(19)32)31-29-18-7-9-20-15(11-18)13-22(41(37,38)39)23(26(20)33)30-28-17-4-2-1-3-5-17;;/h1-13,28-29H,27H2,(H,34,35,36)(H,37,38,39);;/q;2*+1/p-2/b30-23-,31-24+;;",KNZOIDDFJVQVDM-NJXRNGNASA-L,[Na+].[Na+].Nc1ccc2C(=O)C(=N/Nc3ccc4C(=O)C(=N/Nc5ccccc5)\C(=Cc4c3)[S]([O-])(=O)=O)/C(=Cc2c1)[S]([O-])(=O)=O,-2.21013055510,0.00000000000,1,G1,637.56300,-3.62220,149.86320,43,13,3,17,6,208,3,0,2,5,223.34,289.65190761738,0.00000253125,1992.38897559688
A-2904,2-[(carbamoylmethyl)(carboxymethyl)amino]acetic acid,"InChI=1S/C6H10N2O5/c7-4(9)1-8(2-5(10)11)3-6(12)13/h1-3H2,(H2,7,9)(H,10,11)(H,12,13)/p-1",QZTKDVCDBIDYMD-UHFFFAOYSA-M,NC(=O)C[NH+](CC([O-])=O)CC([O-])=O,-1.76358185740,0.04580683660,2,G3,189.14700,-6.14360,34.77210,13,5,2,7,6,74,0,0,0,0,127.79,73.73671977155,4.09599637061,189.02540087438
A-2906,calcium cyanoazanediide,InChI=1S/CH2N2.Ca/c2-1-3;/h2H2;/q;+2,STRTXDFFNXSZQB-UHFFFAOYSA-N,[Ca++].NC#N,-0.44609632170,0.00000000000,1,G1,82.11900,-0.95462,15.55440,4,2,1,3,0,16,0,0,0,0,49.81,54.58748940154,0.00000000000,27.50977500433
A-2907,3-[(2-carboxyethyl)sulfanyl]propanoic acid,"InChI=1S/C6H10O4S/c7-5(8)1-3-11-4-2-6(9)10/h1-4H2,(H,7,8)(H,9,10)",ODJQKYXPKWQWNK-UHFFFAOYSA-N,OC(=O)CCSCCC(O)=O,-0.79914319770,0.05922159885,2,G3,178.20900,0.66900,41.83060,11,3,2,5,6,64,0,0,0,0,74.60,68.59858332966,3.02560833672,129.51770940319
A-2908,N-Butylphosphorothioic triamide,"InChI=1S/C4H14N3PS/c1-2-3-4-7-8(5,6)9/h2-4H2,1H3,(H5,5,6,7,9)",HEPPIYNOUFWEPP-UHFFFAOYSA-N,CCCCN[P](N)(N)=S,-0.77303391650,0.43482510848,3,G5,167.21800,0.51800,45.57050,9,1,3,5,4,56,0,0,0,0,64.07,61.35226640476,3.18177224944,110.38037532843
A-2910,"trisodium 5-({4-chloro-6-[(2-methylphenyl)amino]-1,3,5-triazin-2-yl}amino)-4-hydroxy-3-[(E)-2-(2-sulfonatophenyl)diazen-1-yl]naphthalene-2,7-disulfonate","InChI=1S/C26H20ClN7O10S3.3Na/c1-13-6-2-3-7-16(13)28-25-30-24(27)31-26(32-25)29-18-12-15(45(36,37)38)10-14-11-20(47(42,43)44)22(23(35)21(14)18)34-33-17-8-4-5-9-19(17)46(39,40)41;;;/h2-12,33H,1H3,(H,36,37,38)(H,39,40,41)(H,42,43,44)(H2,28,29,30,31,32);;;/q;3*+1/p-3/b34-22-;;;",GBFBZNVXLZXZMP-GTHSLJRASA-K,[Na+].[Na+].[Na+].Cc1ccccc1Nc2nc(Cl)nc(Nc3cc(cc4C=C(/C(=N/Nc5ccccc5[S]([O-])(=O)=O)C(=O)c34)[S]([O-])(=O)=O)[S]([O-])(=O)=O)n2,-0.45724036760,0.00000000000,1,G1,788.08500,-6.30868,164.45420,50,17,3,24,9,244,4,0,1,5,275.79,356.49684634890,0.00000289000,2382.36955250846
A-2911,hydrazine dihydrochloride,InChI=1S/ClH.H4N2/c;1-2/h1H;1-2H2,BIVUUOPIAYRCAP-UHFFFAOYSA-N,[H+].[Cl-].NN,1.59562881450,0.00000000000,1,G1,68.50700,-4.06470,9.48680,3,2,2,3,0,22,0,0,0,0,52.04,26.66211794974,-0.00000000500,6.00000000000
A-2912,sodium 4-[(E)-2-(2-hydroxynaphthalen-1-yl)diazen-1-yl]benzene-1-sulfonate,"InChI=1S/C16H12N2O4S.Na/c19-15-10-5-11-3-1-2-4-14(11)16(15)18-17-12-6-8-13(9-7-12)23(20,21)22;/h1-10,19H,(H,20,21,22);/q;+1/p-1",CQPFMGBJSMSXLP-UHFFFAOYSA-M,[Na+].Oc1ccc2ccccc2c1N=Nc3ccc(cc3)[S]([O-])(=O)=O,-1.11585789610,0.00000000000,1,G1,350.33100,0.86890,84.19400,24,6,1,8,3,116,3,0,0,3,102.15,160.45320908673,0.00000208333,1002.26607611168
A-2913,C.i. Direct blue 80,"InChI=1S/C32H22N4O16S4.2Cu.4Na/c37-25-11-15(1-7-23(25)33-35-29-21-5-3-19(53(41,42)43)9-17(21)13-27(31(29)39)55(47,48)49)16-2-8-24(26(38)12-16)34-36-30-22-6-4-20(54(44,45)46)10-18(22)14-28(32(30)40)56(50,51)52;;;;;;/h1-14,37-40H,(H,41,42,43)(H,44,45,46)(H,47,48,49)(H,50,51,52);;;;;;/q;2*+2;4*+1/p-8",FTGXCLZZPPMCHU-UHFFFAOYSA-F,[Na+].[Na+].[Na+].[Na+].[Cu++].[Cu++].[O-]c1cc(ccc1N=Nc2c([O-])c(cc3cc(ccc23)[S]([O-])(=O)=O)[S]([O-])(=O)=O)c4ccc(N=Nc5c([O-])c(cc6cc(ccc56)[S]([O-])(=O)=O)[S]([O-])(=O)=O)c([O-])c4,-1.60742874780,0.00000000000,1,G1,1057.79600,-9.58740,177.76280,62,20,0,30,9,308,6,0,0,6,370.48,461.39588857437,0.00000620166,3007.71812512866
A-2915,"4-{2-[(2E)-5-[bis(propan-2-yl)amino]-3-methyl-2,3-dihydro-1,3,4-thiadiazol-2-ylidene]hydrazin-1-ylidene}-N,N-dimethylcyclohexa-2,5-dien-1-iminium methyl sulfate","InChI=1S/C17H27N6S.CH4O4S/c1-12(2)23(13(3)4)17-20-22(7)16(24-17)19-18-14-8-10-15(11-9-14)21(5)6;1-5-6(2,3)4/h8-13H,1-7H3;1H3,(H,2,3,4)/q+1;/p-1",MLTFWXODZCFGQN-UHFFFAOYSA-M,CO[S]([O-])(=O)=O.CC(C)N(C(C)C)c1sc(N=Nc2ccc(cc2)N(C)C)[n+](C)n1,-1.25969843810,0.00000000000,1,G1,458.61000,3.16520,117.69220,30,10,0,12,7,168,2,0,0,2,114.40,182.31946421086,0.00000065625,916.65329101082
A-2916,disodium 8-(phenylamino)-5-[[4-[(5-sulphonatonaphthyl)azo]naphthyl]azo]naphthalenesulphonate,"InChI=1S/C36H25N5O6S2.2Na/c42-48(43,44)34-17-7-13-26-27(34)14-6-16-29(26)38-39-30-19-20-31(25-12-5-4-11-24(25)30)40-41-32-21-22-33(37-23-9-2-1-3-10-23)36-28(32)15-8-18-35(36)49(45,46)47;;/h1-22,37H,(H,42,43,44)(H,45,46,47);;/q;2*+1/p-2",OLPWJTQWWFWEFS-UHFFFAOYSA-L,[Na+].[Na+].[O-][S](=O)(=O)c1cccc2c(cccc12)N=Nc3ccc(N=Nc4ccc(Nc5ccccc5)c6c4cccc6[S]([O-])(=O)=O)c7ccccc37,-1.46311853880,0.00000000000,1,G1,731.72300,3.53680,185.84710,51,11,1,15,8,242,7,0,0,7,175.87,337.17516847099,0.00000252083,2711.88942533689
A-2917,"lithium(1+) ion 4-[(E)-2-(5-amino-3-methyl-1-phenyl-1H-pyrazol-4-yl)diazen-1-yl]-2,5-dichlorobenzene-1-sulfonate","InChI=1S/C16H13Cl2N5O3S.Li/c1-9-15(16(19)23(22-9)10-5-3-2-4-6-10)21-20-13-7-12(18)14(8-11(13)17)27(24,25)26;/h2-8,19-20H,1H3,(H,24,25,26);/q;+1/p-1/b19-16?,21-15+;",BVMYXDOVMKUHFQ-RPHAVLPSSA-M,[Li+].CC1=NN(C(=N)/C1=N/Nc2cc(Cl)c(cc2Cl)[S]([O-])(=O)=O)c3ccccc3,-1.23706852490,0.00000000000,1,G1,432.21800,0.54277,105.23960,28,7,2,12,4,140,2,0,1,3,121.04,183.20113248462,0.00000280333,1090.95861060866
A-2918,4-methyl-2-(2-methylpropyl)oxan-4-ol,"InChI=1S/C10H20O2/c1-8(2)6-9-7-10(3,11)4-5-12-9/h8-9,11H,4-7H2,1-3H3",YVSNOTITPICPTB-UHFFFAOYSA-N,CC(C)CC1CC(C)(O)CCO1,2.13768162010,0.00000000000,1,G1,172.26800,1.96250,49.05280,12,2,1,2,2,72,0,1,1,1,29.46,74.92567788557,2.36023818631,140.77400566229
A-2920,disodium 8-[[4-[[(4-methylphenyl)sulphonyl]oxy]phenyl]azo]-5-[[4-[(4-nitro-2-sulphonatophenyl)amino]phenyl]azo]naphthalene-1-sulphonate,"InChI=1S/C35H26N6O11S3.2Na/c1-22-2-13-28(14-3-22)55(50,51)52-27-11-8-25(9-12-27)38-40-33-19-18-32(30-16-15-29(21-31(30)33)53(44,45)46)39-37-24-6-4-23(5-7-24)36-34-17-10-26(41(42)43)20-35(34)54(47,48)49;;/h2-21,36H,1H3,(H,44,45,46)(H,47,48,49);;/q;2*+1/p-2",BXMJSZZPKAWJHR-UHFFFAOYSA-L,[Na+].[Na+].Cc1ccc(cc1)[S](=O)(=O)Oc2ccc(cc2)N=Nc3ccc(N=Nc4ccc(Nc5ccc(cc5[S]([O-])(=O)=O)[N+]([O-])=O)cc4)c6ccc(cc36)[S]([O-])(=O)=O,-1.57098474740,0.00000000000,1,G1,846.78900,2.21472,196.48230,57,16,1,22,12,280,6,0,0,6,262.38,369.83479893783,0.00000359999,2862.78875252621
A-2921,"2,4,6-trimethylbenzene-1,3-diamine","InChI=1S/C9H14N2/c1-5-4-6(2)9(11)7(3)8(5)10/h4H,10-11H2,1-3H3",ZVDSMYGTJDFNHN-UHFFFAOYSA-N,Cc1cc(C)c(N)c(C)c1N,-0.82071635550,0.00000000000,1,G1,150.22500,1.77626,49.47780,11,2,2,2,0,60,1,0,0,1,52.04,67.20601085671,3.45554648382,263.85447421348
A-2922,"disodium 4-amino-3,6-bis[(E)-2-{4-[(E)-2-(2,4-diaminophenyl)diazen-1-yl]phenyl}diazen-1-yl]-5-hydroxynaphthalene-2,7-disulfonate","InChI=1S/C34H29N13O7S2.2Na/c35-18-1-11-26(24(37)15-18)44-40-20-3-7-22(8-4-20)42-46-32-28(55(49,50)51)13-17-14-29(56(52,53)54)33(34(48)30(17)31(32)39)47-43-23-9-5-21(6-10-23)41-45-27-12-2-19(36)16-25(27)38;;/h1-16,43H,35-39H2,(H,49,50,51)(H,52,53,54);;/q;2*+1/p-2/b44-40?,45-41?,46-42?,47-33-;;",WYURLZIZBYCORX-DMVGOSKESA-L,[Na+].[Na+].Nc1ccc(N=Nc2ccc(N\N=C\3C(=O)c4c(N)c(N=Nc5ccc(cc5)N=Nc6ccc(N)cc6N)c(cc4C=C3[S]([O-])(=O)=O)[S]([O-])(=O)=O)cc2)c(N)c1,-1.56871814440,0.00000000000,1,G1,839.78800,0.30640,207.82560,58,20,6,24,10,284,5,0,1,6,360.12,374.12481528941,0.00000372099,2799.27012339910
A-2924,tempone,"InChI=1S/C9H16NO2/c1-8(2)5-7(11)6-9(3,4)10(8)12/h5-6H2,1-4H3",WSGDRFHJFJRSFY-UHFFFAOYSA-N,CC1(C)CC(=O)CC(C)(C)N1[O],0.10341254960,0.00000000000,1,G1,170.23200,1.55400,44.92450,12,2,0,3,0,69,0,1,1,1,40.21,73.32258481139,2.90915130329,188.57407497430
A-2925,"disodium 4-amino-3-[2-(4-{4-[2-(2,4-diaminophenyl)diazen-1-yl]benzenesulfonamido}phenyl)diazen-1-yl]-5-hydroxy-6-(2-phenyldiazen-1-yl)naphthalene-2,7-disulfonate","InChI=1S/C34H28N10O9S3.2Na/c35-20-6-15-27(26(36)18-20)41-38-23-11-13-25(14-12-23)54(46,47)44-24-9-7-22(8-10-24)40-42-32-28(55(48,49)50)16-19-17-29(56(51,52)53)33(34(45)30(19)31(32)37)43-39-21-4-2-1-3-5-21;;/h1-18,44-45H,35-37H2,(H,48,49,50)(H,51,52,53);;/q;2*+1/p-2",GLNHIAPTFHWQKY-UHFFFAOYSA-L,[Na+].[Na+].Nc1ccc(N=Nc2ccc(cc2)[S](=O)(=O)Nc3ccc(cc3)N=Nc4c(N)c5c(O)c(N=Nc6ccccc6)c(cc5cc4[S]([O-])(=O)=O)[S]([O-])(=O)=O)c(N)c1,-0.60298119420,0.00000000000,1,G1,860.82400,1.15520,203.88090,58,18,5,24,11,286,6,0,0,6,333.02,374.89039319372,0.00000372099,2940.60378628781
A-2927,4-methylphenol,"InChI=1S/C7H8O/c1-6-2-4-7(8)5-3-6/h2-5,8H,1H3",IWDCLRJOBJJRNH-UHFFFAOYSA-N,Cc1ccc(O)cc1,-0.70154790530,0.02959705869,4,G5,108.14000,1.70062,32.84380,8,1,1,1,0,42,1,0,0,1,20.23,48.59057898609,3.03245553203,143.24662946460
A-2928,"sodium 1-amino-4-(cyclohexylamino)-9,10-dioxo-9,10-dihydroanthracene-2-sulfonate","InChI=1S/C20H20N2O5S.Na/c21-18-15(28(25,26)27)10-14(22-11-6-2-1-3-7-11)16-17(18)20(24)13-9-5-4-8-12(13)19(16)23;/h4-5,8-11,22H,1-3,6-7,21H2,(H,25,26,27);/q;+1/p-1",DJDYMAHXZBQZKH-UHFFFAOYSA-M,[Na+].Nc1c(cc(NC2CCCCC2)c3C(=O)c4ccccc4C(=O)c13)[S]([O-])(=O)=O,-1.29636509850,0.00000000000,1,G1,422.43800,-0.30310,102.62030,29,7,2,9,3,146,2,1,2,4,129.39,190.65120464714,0.00000240250,1108.09491004387
A-2930,cytidine 3'-(dihydrogen phosphate),"InChI=1S/C9H14N3O8P/c10-5-1-2-12(9(15)11-5)8-7(14)6(13)4(20-8)3-19-21(16,17)18/h1-2,4,6-8,13-14H,3H2,(H2,10,11,15)(H2,16,17,18)",IERHLVCPSMICTF-UHFFFAOYSA-N,NC1=NC(=O)N(C=C1)C2OC(CO[P](O)(O)=O)C(O)C2O,-1.19877535230,0.00000000000,1,G1,323.19800,-2.44600,66.82910,21,9,5,12,4,118,1,1,1,2,177.36,117.35459892577,2.15800239633,615.25548153933
A-2932,"sodium 5-[(2,4-dinitrophenyl)amino]-2-(phenylamino)benzene-1-sulfonate","InChI=1S/C18H14N4O7S.Na/c23-21(24)14-7-9-15(17(11-14)22(25)26)20-13-6-8-16(18(10-13)30(27,28)29)19-12-4-2-1-3-5-12;/h1-11,19-20H,(H,27,28,29);/q;+1/p-1",KKBFCPLWFWQNFB-UHFFFAOYSA-M,[Na+].[O-][N+](=O)c1ccc(Nc2ccc(Nc3ccccc3)c(c2)[S]([O-])(=O)=O)c(c1)[N+]([O-])=O,-2.19913736310,0.00000000000,1,G1,452.38000,0.89830,107.16340,31,9,2,13,7,154,3,0,0,3,167.54,197.99330297659,0.00000341333,1236.91060328801
A-2933,methyl 2-aminobenzoate,"InChI=1S/C8H9NO2/c1-11-8(10)6-4-2-3-5-7(6)9/h2-5H,9H2,1H3",VAMXMNNIEUEQDV-UHFFFAOYSA-N,COC(=O)c1ccccc1N,-1.73384704510,0.00000000000,1,G1,151.16500,1.05540,42.19390,11,3,1,3,1,58,1,0,0,1,52.32,64.77624537485,3.03266215580,270.54949758389